
Running Job 1 of 1 ../qm_inp/SiH3OH_SiH3OH.con3.150.qcinp
qchem ../qm_inp/SiH3OH_SiH3OH.con3.150.qcinp_40011.0 /scratch/xuedong/qchem40011/ 1
/home/qwang/software/qchem5.1.2/exe/qcprog.exe_s ../qm_inp/SiH3OH_SiH3OH.con3.150.qcinp_40011.0 /scratch/xuedong/qchem40011/
Check license passed

                  Welcome to Q-Chem
     A Quantum Leap Into The Future Of Chemistry


 Q-Chem 5.1, Q-Chem, Inc., Pleasanton, CA (2018)

 Yihan Shao,  Zhengting Gan,  E. Epifanovsky,  A. T. B. Gilbert,  M. Wormit,  
 J. Kussmann,  A. W. Lange,  A. Behn,  Jia Deng,  Xintian Feng,  D. Ghosh,  
 M. Goldey,  P. R. Horn,  L. D. Jacobson,  I. Kaliman,  T. Kus,  A. Landau,  
 Jie Liu,  E. I. Proynov,  R. M. Richard,  R. P. Steele,  E. J. Sundstrom,  
 H. L. Woodcock III,  P. M. Zimmerman,  D. Zuev,  B. Albrecht,  E. Alguire,  
 S. A. Baeppler,  D. Barton,  Z. Benda,  Y. A. Bernard,  E. J. Berquist,  
 K. B. Bravaya,  H. Burton,  D. Casanova,  Chun-Min Chang,  Yunqing Chen,  
 A. Chien,  K. D. Closser,  M. P. Coons,  S. Coriani,  S. Dasgupta,  
 A. L. Dempwolff,  M. Diedenhofen,  Hainam Do,  R. G. Edgar,  Po-Tung Fang,  
 S. Faraji,  S. Fatehi,  Qingguo Feng,  K. D. Fenk,  J. Fosso-Tande,  
 J. Gayvert,  Qinghui Ge,  A. Ghysels,  G. Gidofalvi,  J. Gomes,  
 J. Gonthier,  A. Gunina,  D. Hait,  M. W. D. Hanson-Heine,  
 P. H. P. Harbach,  A. W. Hauser,  J. E. Herr,  E. G. Hohenstein,  
 Z. C. Holden,  Kerwin Hui,  B. C. Huynh,  T.-C. Jagau,  Hyunjun Ji,  
 B. Kaduk,  K. Khistyaev,  Jaehoon Kim,  P. Klunzinger,  K. Koh,  
 D. Kosenkov,  L. Koulias,  T. Kowalczyk,  C. M. Krauter,  A. Kunitsa,  
 Ka Un Lao,  A. Laurent,  K. V. Lawler,  Joonho Lee,  D. Lefrancois,  
 S. Lehtola,  D. S. Levine,  Yi-Pei Li,  You-Sheng Lin,  Fenglai Liu,  
 E. Livshits,  A. Luenser,  P. Manohar,  E. Mansoor,  S. F. Manzer,  
 Shan-Ping Mao,  Yuezhi Mao,  N. Mardirossian,  A. V. Marenich,  
 T. Markovich,  L. A. Martinez-Martinez,  S. A. Maurer,  N. J. Mayhall,  
 S. C. McKenzie,  J.-M. Mewes,  A. F. Morrison,  J. W. Mullinax,  K. Nanda,  
 T. S. Nguyen-Beck,  R. Olivares-Amaya,  J. A. Parkhill,  T. M. Perrine,  
 F. Plasser,  P. Pokhilko,  S. Prager,  A. Prociuk,  E. Ramos,  D. R. Rehn,  
 F. Rob,  M. Schneider,  N. Sergueev,  S. M. Sharada,  S. Sharma,  
 D. W. Small,  T. Stauch,  T. Stein,  Yu-Chuan Su,  A. J. W. Thom,  
 A. Tkatchenko,  T. Tsuchimochi,  N. M. Tubman,  L. Vogt,  M. L. Vidal,  
 O. Vydrov,  M. A. Watson,  J. Wenzel,  M. de Wergifosse,  T. A. Wesolowski,  
 A. White,  J. Witte,  A. Yamada,  Jun Yang,  K. Yao,  S. Yeganeh,  
 S. R. Yost,  Zhi-Qiang You,  A. Zech,  Igor Ying Zhang,  Xing Zhang,  
 Yan Zhao,  Ying Zhu,  B. R. Brooks,  G. K. L. Chan,  C. J. Cramer,  
 M. S. Gordon,  W. J. Hehre,  A. Klamt,  M. W. Schmidt,  C. D. Sherrill,  
 D. G. Truhlar,  A. Aspuru-Guzik,  R. Baer,  A. T. Bell,  N. A. Besley,  
 Jeng-Da Chai,  A. E. DePrince, III,  R. A. DiStasio Jr.,  A. Dreuw,  
 B. D. Dunietz,  T. R. Furlani,  Chao-Ping Hsu,  Yousung Jung,  Jing Kong,  
 D. S. Lambrecht,  WanZhen Liang,  C. Ochsenfeld,  V. A. Rassolov,  
 L. V. Slipchenko,  J. E. Subotnik,  T. Van Voorhis,  J. M. Herbert,  
 A. I. Krylov,  P. M. W. Gill,  M. Head-Gordon

 Contributors to earlier versions of Q-Chem not listed above: 
 R. D. Adamson,  B. Austin,  J. Baker,  G. J. O. Beran,  K. Brandhorst,  
 S. T. Brown,  E. F. C. Byrd,  A. K. Chakraborty,  C.-L. Cheng,  
 Siu Hung Chien,  D. M. Chipman,  D. L. Crittenden,  H. Dachsel,  
 R. J. Doerksen,  A. D. Dutoi,  L. Fusti-Molnar,  W. A. Goddard III,  
 A. Golubeva-Zadorozhnaya,  S. R. Gwaltney,  G. Hawkins,  A. Heyden,  
 S. Hirata,  G. Kedziora,  F. J. Keil,  C. Kelley,  Jihan Kim,  R. A. King,  
 R. Z. Khaliullin,  P. P. Korambath,  W. Kurlancheek,  A. M. Lee,  M. S. Lee,  
 S. V. Levchenko,  Ching Yeh Lin,  D. Liotard,  R. C. Lochan,  I. Lotan,  
 P. E. Maslen,  N. Nair,  D. P. O'Neill,  D. Neuhauser,  E. Neuscamman,  
 C. M. Oana,  R. Olson,  B. Peters,  R. Peverati,  P. A. Pieniazek,  
 Y. M. Rhee,  J. Ritchie,  M. A. Rohrdanz,  E. Rosta,  N. J. Russ,  
 H. F. Schaefer III,  N. E. Schultz,  N. Shenvi,  A. C. Simmonett,  A. Sodt,  
 D. Stuck,  K. S. Thanthiriwatte,  V. Vanovschi,  Tao Wang,  A. Warshel,  
 C. F. Williams,  Q. Wu,  X. Xu,  W. Zhang

 Please cite Q-Chem as follows:
 Y. Shao et al., Mol. Phys. 113, 184-215 (2015)
 DOI: 10.1080/00268976.2014.952696

 Q-Chem 5.1.2 for Intel X86 EM64T Linux

 Parts of Q-Chem use Armadillo 8.300.2 (Tropical Shenanigans).
 http://arma.sourceforge.net/

 Q-Chem begins on Tue Jul  9 20:14:09 2019  

Host: 
0

     Scratch files written to /scratch/xuedong/qchem40011//
 Dec218 |scratch|qcdevops|jenkins|workspace|build_RNUM 6581   
Processing $rem in /home/qwang/software/qchem5.1.2/config/preferences.
 MEM_TOTAL  4000 
Core orbitals will be frozen
Input Ideriv = 1
Curr. Ideriv = -1
Max.  Ideriv = 1

Checking the input file for inconsistencies... 	...done.

--------------------------------------------------------------
User input:
--------------------------------------------------------------
$molecule
0 1
--
0 1
Si     2.376764240     0.137270735     0.463705189
H     2.850818527    -0.458840989     1.729658577
H     1.788718359     1.464378485     0.699128015
H     3.512521005     0.224749011    -0.476920657
O     1.131720522    -0.774155642    -0.187458262
H     1.331328116    -1.685531717    -0.412871535
--
0 1
Si    -3.471859631     0.259431080    -0.191929509
H    -3.778196115    -1.110065442     0.288549052
H    -4.676068973     0.830174239    -0.824359341
H    -3.110860609     1.072248532     0.995016436
O    -2.284941633     0.269596330    -1.339445231
H    -1.421208863    -0.055018219    -1.045439055
$end

$rem
BASIS = aug-cc-pVTZ
JOB_TYPE  =  BSSE
METHOD  =  MP2
SCF_CONVERGENCE  =  7
SCF_MAX_CYCLES  =  200
$end

--------------------------------------------------------------
 ----------------------------------------------------------------
             Standard Nuclear Orientation (Angstroms)
    I     Atom           X                Y                Z
 ----------------------------------------------------------------
    1      Si     -2.9606224335     0.3070347211     0.1576591333
    2      H      -3.6438869077     1.0715126184    -0.9060315350
    3      H      -2.3299716459     1.2129557365     1.1292678731
    4      H      -3.9454122859    -0.5721020443     0.8207431058
    5      O      -1.6956840087    -0.5873630160    -0.4786027700
    6      H      -1.9180247408    -1.2459151567    -1.1405199567
    7      Si      2.9182688582     0.3390689248    -0.1403210369
    8      H       3.0682516053     0.1168207762    -1.5992018918
    9      H       4.2325118226     0.1798368119     0.5102525177
   10      H       2.4455340506     1.7323998887     0.0467185503
   11      O       1.9071546613    -0.7621140667     0.5601888480
   12      H       0.9921829356    -0.7451430113     0.2433493629
 ----------------------------------------------------------------
 Molecular Point Group                 C1    NOp =  1
 Largest Abelian Subgroup              C1    NOp =  1
 Nuclear Repulsion Energy =   199.1099926977 hartrees
 There are       26 alpha and       26 beta electrons
 Requested basis set is aug-cc-pVTZ
 There are 132 shells and 376 basis functions

 Total QAlloc Memory Limit   4000 MB
 Mega-Array Size       188 MB
 MEM_STATIC part       192 MB

                       Distance Matrix (Angstroms)
             Si(  1)   H (  2)   H (  3)   H (  4)   O (  5)   H (  6)
   H (  2)  1.477401
   H (  3)  1.470523  2.426690
   H (  4)  1.477286  2.402943  2.427193
   O (  5)  1.674767  2.594236  2.495740  2.598040
   H (  6)  2.276825  2.898975  3.371599  2.900151  0.959823
   Si(  7)  5.886525  6.647155  5.469878  6.990279  4.718185  5.186744
   H (  8)  6.282521  6.815037  6.147103  7.451324  4.944360  5.189450
   H (  9)  7.202894  8.052242  6.672084  8.218288  6.058873  6.525865
   H ( 10)  5.592003  6.198835  4.924144  6.837692  4.775662  5.414845
   O ( 11)  5.000036  6.027110  4.709351  5.861445  3.753675  4.214080
   H ( 12)  4.091343  5.110231  3.956730  4.974251  2.787604  3.261162
             Si(  7)   H (  8)   H (  9)   H ( 10)   O ( 11)
   H (  8)  1.483315
   H (  9)  1.475071  2.410243
   H ( 10)  1.483183  2.388918  2.412179
   O ( 11)  1.650960  2.604542  2.509393  2.603095
   H ( 12)  2.243329  2.906551  3.380319  2.879082  0.968426
 
 A cutoff of  1.0D-10 yielded   7489 shell pairs
 There are     59585 function pairs (     77265 Cartesian)
 
 -------------------------------------------------------
 OpenMP Integral Computing Module                       
 Release: version 1.0, May 2013, Q-Chem Inc. Pittsburgh 
 -------------------------------------------------------
 Integral Job Info:
 Integral job number is                      11
 Integral operator is                         1
 short-range coefficients                     0
 long-range coefficients              100000000
 Omega coefficients                           0
 if combine SR and LR in K                    0
 Integral screening is                        0
 Integral computing path is                   2
 max size of driver memory is            800000
 size of driver memory is                776718
 size of scratch memory is             29531563
 max col of scratch BK array              10000
 max len of scratch array in speh3          662
 max len of scratch index in speh4           32
 max int batch size is                      520
 min int batch size is                       52
 fixed nKL is                                31
 max L of basis functions is                  3
 order of int derivative is                   0
 number of shells is                        132
 number of basis is                         428
 number of cartesian basis is               428
 number of contracted shell pairs          7489
 number of primitive shell pairs          23833
 maxK2 (contraction) of shell pair          169
 max number of K2 of shell pair               1
 max number of CS2 of shell pair           1281
 max number of PS2 of shell pair           2223
 mem total for path MDJ                  702564
 -------------------------------------------------------
 Smallest overlap matrix eigenvalue = 2.86E-05

 Scale SEOQF with 1.000000e-01/1.000000e-01/1.000000e-01

 Standard Electronic Orientation quadrupole field applied
 Nucleus-field energy     =     0.0000000131 hartrees
 Guess MOs from converged MOs on fragments

-----------------------------------------------------------------
 SCF on fragment 1 out of 2
/home/qwang/software/qchem5.1.2/exe/qcprog.exe /scratch/xuedong/qchem40011/Frg1.input /scratch/xuedong/qchem40011/Frg1/ > /dev/null 
 SCF on fragment 2 out of 2
/home/qwang/software/qchem5.1.2/exe/qcprog.exe /scratch/xuedong/qchem40011/Frg2.input /scratch/xuedong/qchem40011/Frg2/ > /dev/null 
-----------------------------------------------------------------
 Done with SCF on isolated fragments
-----------------------------------------------------------------

 User-specified occupied guess orbitals will be used
 A restricted Hartree-Fock SCF calculation will be
 performed using Pulay DIIS extrapolation
 SCF converges when DIIS error is below 1.0E-07
 using 6 threads for integral computing
 -------------------------------------------------------
 OpenMP Integral computing Module                
 Release: version 1.0, May 2013, Q-Chem Inc. Pittsburgh 
 -------------------------------------------------------
 ---------------------------------------
  Cycle       Energy         DIIS Error
 ---------------------------------------
    1    -732.4199129580      1.33E-04
    2    -732.4204254940      3.40E-05
    3    -732.4204649200      1.62E-05
    4    -732.4204705930      5.77E-06
    5    -732.4204717211      1.33E-06
    6    -732.4204717963      2.74E-07
    7    -732.4204717994      8.97E-08 Convergence criterion met
 ---------------------------------------
 SCF time:  CPU 397.35 s  wall 66.28 s

-----------------------------------------------------------------
 SCF CP correction for fragment 1 out of 2
/home/qwang/software/qchem5.1.2/exe/qcprog.exe /scratch/xuedong/qchem40011/Frg1.input /scratch/xuedong/qchem40011/Frg1BSSE/ > /dev/null 
 SCF CP correction for fragment 2 out of 2
/home/qwang/software/qchem5.1.2/exe/qcprog.exe /scratch/xuedong/qchem40011/Frg2.input /scratch/xuedong/qchem40011/Frg2BSSE/ > /dev/null 
-----------------------------------------------------------------
 Done with counterpoise correction on fragments
-----------------------------------------------------------------

 SCF   energy in the final basis set = -732.42047180
 Total energy in the final basis set = -732.42047180
 
 Components of the MP2 correlation energy:
        aaaa  correlation energy =        -0.0814626066 au
        abab  correlation energy =        -0.6093161006 au
        bbbb  correlation energy =        -0.0814626066 au
        non-Brillouin singles    =        -0.0000000000 au

 Total  MP2   correlation energy =                    -0.77224131 au
        MP2         total energy =                  -733.19271311 au
 
 --------------------------------------------------------------
 
                    Orbital Energies (a.u.)
 --------------------------------------------------------------
 
 Alpha MOs
 -- Occupied --
-68.807 -68.788 -20.574 -20.553  -6.151  -6.133  -4.258  -4.258
 -4.258  -4.239  -4.239  -4.239  -1.352  -1.333  -0.768  -0.747
 -0.661  -0.642  -0.565  -0.563  -0.547  -0.544  -0.487  -0.469
 -0.467  -0.449
 -- Virtual --
  0.024   0.038   0.040   0.050   0.055   0.059   0.062   0.064
  0.073   0.074   0.075   0.082   0.095   0.104   0.125   0.137
  0.140   0.142   0.153   0.155   0.160   0.163   0.175   0.179
  0.189   0.198   0.203   0.207   0.209   0.214   0.227   0.230
  0.246   0.250   0.251   0.256   0.263   0.265   0.272   0.277
  0.296   0.298   0.303   0.313   0.325   0.328   0.331   0.338
  0.343   0.351   0.364   0.369   0.373   0.378   0.385   0.397
  0.398   0.405   0.412   0.417   0.426   0.430   0.438   0.458
  0.462   0.472   0.489   0.517   0.524   0.527   0.546   0.553
  0.560   0.580   0.586   0.594   0.597   0.601   0.602   0.613
  0.616   0.621   0.628   0.635   0.642   0.643   0.648   0.658
  0.664   0.667   0.671   0.676   0.678   0.696   0.712   0.723
  0.757   0.762   0.787   0.812   0.814   0.824   0.836   0.858
  0.868   0.886   0.896   0.923   0.930   0.947   0.952   0.953
  0.961   0.966   0.972   0.979   0.986   0.991   1.010   1.014
  1.020   1.041   1.044   1.052   1.058   1.062   1.077   1.082
  1.093   1.107   1.114   1.122   1.132   1.144   1.152   1.169
  1.170   1.182   1.189   1.191   1.197   1.210   1.213   1.217
  1.225   1.250   1.273   1.286   1.296   1.302   1.304   1.310
  1.319   1.325   1.336   1.347   1.354   1.365   1.366   1.369
  1.372   1.377   1.393   1.400   1.402   1.418   1.425   1.431
  1.438   1.457   1.459   1.468   1.477   1.494   1.498   1.504
  1.514   1.532   1.543   1.586   1.601   1.644   1.670   1.721
  1.740   1.745   1.804   1.813   1.827   1.867   1.894   1.917
  1.934   1.943   1.957   1.965   1.977   1.984   2.001   2.003
  2.014   2.016   2.045   2.062   2.075   2.120   2.166   2.203
  2.215   2.231   2.240   2.248   2.281   2.360   2.394   2.409
  2.416   2.460   2.481   2.499   2.538   2.558   2.606   2.623
  2.640   2.671   2.689   2.738   2.799   2.821   2.864   2.877
  2.887   2.940   3.060   3.064   3.094   3.102   3.124   3.150
  3.278   3.303   3.349   3.370   3.584   3.594   3.610   3.640
  3.706   3.736   3.901   3.906   3.972   3.985   3.989   3.993
  4.001   4.003   4.081   4.103   4.106   4.110   4.118   4.127
  4.137   4.142   4.171   4.179   4.186   4.195   4.209   4.216
  4.286   4.289   4.318   4.327   4.344   4.348   4.370   4.374
  4.392   4.407   4.431   4.444   4.469   4.491   4.522   4.528
  4.534   4.541   4.573   4.594   4.628   4.668   4.693   4.740
  4.746   4.749   4.766   4.803   4.805   4.813   4.827   4.853
  4.868   4.905   4.997   5.029   5.047   5.106   5.112   5.158
  5.165   5.208   5.398   5.409   5.435   5.437   5.667   5.709
  6.350   6.386   6.710   6.732   6.769   6.776   6.806   6.837
  6.849   6.882   7.221   7.231   7.269   7.289   7.293   7.314
  7.325   7.360   7.385   7.424   7.568   7.649   7.728   7.756
  8.104   8.164   9.027   9.119  14.878  15.230
 --------------------------------------------------------------
 
          Ground-State Mulliken Net Atomic Charges

     Atom                 Charge (a.u.)
  ----------------------------------------
      1 Si                    1.011366
      2 H                    -0.205149
      3 H                    -0.174067
      4 H                    -0.208959
      5 O                    -0.510214
      6 H                     0.095705
      7 Si                    1.184758
      8 H                    -0.260810
      9 H                    -0.238573
     10 H                    -0.266234
     11 O                    -0.596761
     12 H                     0.168937
  ----------------------------------------
  Sum of atomic charges =    -0.000000

 -----------------------------------------------------------------
                    Cartesian Multipole Moments
 -----------------------------------------------------------------
    Charge (ESU x 10^10)
                -0.0000
    Dipole Moment (Debye)
         X      -2.5498      Y      -0.0141      Z      -1.4993
       Tot       2.9579
    Quadrupole Moments (Debye-Ang)
        XX     -40.7388     XY       3.4861     YY     -42.3000
        XZ       0.1529     YZ       3.3113     ZZ     -42.4782
    Octopole Moments (Debye-Ang^2)
       XXX     -16.3210    XXY      -0.8343    XYY      -7.1486
       YYY     -13.3083    XXZ      -6.2572    XYZ      -4.4153
       YYZ      -4.9348    XZZ      -6.9834    YZZ      -5.7446
       ZZZ      -1.5705
    Hexadecapole Moments (Debye-Ang^3)
      XXXX   -1963.6621   XXXY       9.0843   XXYY    -345.6572
      XYYY       4.9207   YYYY    -145.9943   XXXZ       7.7877
      XXYZ      21.2735   XYYZ       6.6708   YYYZ       6.8711
      XXZZ    -350.0802   XYZZ       9.7858   YYZZ     -39.8732
      XZZZ      23.4489   YZZZ       6.5896   ZZZZ    -115.6386
 -----------------------------------------------------------------

 ---------------------------------------------------------------------
 *                     Fragment's binding energy                     *
 ---------------------------------------------------------------------
    Fragment           E(TOTAL)         E(CP-CORR)           DE(BSSE)
 ---------------------------------------------------------------------
           1    -366.5939975002    -366.5942289169       0.0002314167
           2    -366.5937813148    -366.5940029163       0.0002216015
     Complex    -733.1927131133
 ---------------------------------------------------------------------
  DE, kJ/mol     -12.9551538724     -11.7657405756
 ---------------------------------------------------------------------

Archival summary:
1\1\gm4.localdomain\SP\MP2\BasisUnspecified\i228\xuedong\TueJul920:25:242019TueJul920:25:242019\0\\#,MP2,BasisUnspecified,\\0,1\Si\H,1,1.47507\H,1,1.48318,2,109.255\H,1,1.48331,2,109.118,3,117.004,0\O,1,1.65096,2,106.65,3,-121.483,0\H,5,0.968426,1,115.349,2,178.017,0\O,6,2.7876,5,175.361,1,-102.774,0\H,7,0.959823,6,111.292,5,-159.355,0\Si,7,1.67477,6,131.308,5,12.6834,0\H,9,1.47052,7,104.839,6,8.13349,0\H,9,1.47729,7,110.867,6,-111.54,0\H,9,1.4774,7,110.617,6,127.628,0\\HF=-732.420472\MP2=-733.192713\\@

 Total job time:  674.52s(wall), 1879.81s(cpu) 
 Tue Jul  9 20:25:24 2019

        *************************************************************
        *                                                           *
        *  Thank you very much for using Q-Chem.  Have a nice day.  *
        *                                                           *
        *************************************************************


