
Running Job 1 of 1 ../qm_inp/SiH3OH_SiH3OH.con2.120.qcinp
qchem ../qm_inp/SiH3OH_SiH3OH.con2.120.qcinp_35756.0 /scratch/xuedong/qchem35756/ 1
/home/qwang/software/qchem5.1.2/exe/qcprog.exe_s ../qm_inp/SiH3OH_SiH3OH.con2.120.qcinp_35756.0 /scratch/xuedong/qchem35756/
Check license passed

                  Welcome to Q-Chem
     A Quantum Leap Into The Future Of Chemistry


 Q-Chem 5.1, Q-Chem, Inc., Pleasanton, CA (2018)

 Yihan Shao,  Zhengting Gan,  E. Epifanovsky,  A. T. B. Gilbert,  M. Wormit,  
 J. Kussmann,  A. W. Lange,  A. Behn,  Jia Deng,  Xintian Feng,  D. Ghosh,  
 M. Goldey,  P. R. Horn,  L. D. Jacobson,  I. Kaliman,  T. Kus,  A. Landau,  
 Jie Liu,  E. I. Proynov,  R. M. Richard,  R. P. Steele,  E. J. Sundstrom,  
 H. L. Woodcock III,  P. M. Zimmerman,  D. Zuev,  B. Albrecht,  E. Alguire,  
 S. A. Baeppler,  D. Barton,  Z. Benda,  Y. A. Bernard,  E. J. Berquist,  
 K. B. Bravaya,  H. Burton,  D. Casanova,  Chun-Min Chang,  Yunqing Chen,  
 A. Chien,  K. D. Closser,  M. P. Coons,  S. Coriani,  S. Dasgupta,  
 A. L. Dempwolff,  M. Diedenhofen,  Hainam Do,  R. G. Edgar,  Po-Tung Fang,  
 S. Faraji,  S. Fatehi,  Qingguo Feng,  K. D. Fenk,  J. Fosso-Tande,  
 J. Gayvert,  Qinghui Ge,  A. Ghysels,  G. Gidofalvi,  J. Gomes,  
 J. Gonthier,  A. Gunina,  D. Hait,  M. W. D. Hanson-Heine,  
 P. H. P. Harbach,  A. W. Hauser,  J. E. Herr,  E. G. Hohenstein,  
 Z. C. Holden,  Kerwin Hui,  B. C. Huynh,  T.-C. Jagau,  Hyunjun Ji,  
 B. Kaduk,  K. Khistyaev,  Jaehoon Kim,  P. Klunzinger,  K. Koh,  
 D. Kosenkov,  L. Koulias,  T. Kowalczyk,  C. M. Krauter,  A. Kunitsa,  
 Ka Un Lao,  A. Laurent,  K. V. Lawler,  Joonho Lee,  D. Lefrancois,  
 S. Lehtola,  D. S. Levine,  Yi-Pei Li,  You-Sheng Lin,  Fenglai Liu,  
 E. Livshits,  A. Luenser,  P. Manohar,  E. Mansoor,  S. F. Manzer,  
 Shan-Ping Mao,  Yuezhi Mao,  N. Mardirossian,  A. V. Marenich,  
 T. Markovich,  L. A. Martinez-Martinez,  S. A. Maurer,  N. J. Mayhall,  
 S. C. McKenzie,  J.-M. Mewes,  A. F. Morrison,  J. W. Mullinax,  K. Nanda,  
 T. S. Nguyen-Beck,  R. Olivares-Amaya,  J. A. Parkhill,  T. M. Perrine,  
 F. Plasser,  P. Pokhilko,  S. Prager,  A. Prociuk,  E. Ramos,  D. R. Rehn,  
 F. Rob,  M. Schneider,  N. Sergueev,  S. M. Sharada,  S. Sharma,  
 D. W. Small,  T. Stauch,  T. Stein,  Yu-Chuan Su,  A. J. W. Thom,  
 A. Tkatchenko,  T. Tsuchimochi,  N. M. Tubman,  L. Vogt,  M. L. Vidal,  
 O. Vydrov,  M. A. Watson,  J. Wenzel,  M. de Wergifosse,  T. A. Wesolowski,  
 A. White,  J. Witte,  A. Yamada,  Jun Yang,  K. Yao,  S. Yeganeh,  
 S. R. Yost,  Zhi-Qiang You,  A. Zech,  Igor Ying Zhang,  Xing Zhang,  
 Yan Zhao,  Ying Zhu,  B. R. Brooks,  G. K. L. Chan,  C. J. Cramer,  
 M. S. Gordon,  W. J. Hehre,  A. Klamt,  M. W. Schmidt,  C. D. Sherrill,  
 D. G. Truhlar,  A. Aspuru-Guzik,  R. Baer,  A. T. Bell,  N. A. Besley,  
 Jeng-Da Chai,  A. E. DePrince, III,  R. A. DiStasio Jr.,  A. Dreuw,  
 B. D. Dunietz,  T. R. Furlani,  Chao-Ping Hsu,  Yousung Jung,  Jing Kong,  
 D. S. Lambrecht,  WanZhen Liang,  C. Ochsenfeld,  V. A. Rassolov,  
 L. V. Slipchenko,  J. E. Subotnik,  T. Van Voorhis,  J. M. Herbert,  
 A. I. Krylov,  P. M. W. Gill,  M. Head-Gordon

 Contributors to earlier versions of Q-Chem not listed above: 
 R. D. Adamson,  B. Austin,  J. Baker,  G. J. O. Beran,  K. Brandhorst,  
 S. T. Brown,  E. F. C. Byrd,  A. K. Chakraborty,  C.-L. Cheng,  
 Siu Hung Chien,  D. M. Chipman,  D. L. Crittenden,  H. Dachsel,  
 R. J. Doerksen,  A. D. Dutoi,  L. Fusti-Molnar,  W. A. Goddard III,  
 A. Golubeva-Zadorozhnaya,  S. R. Gwaltney,  G. Hawkins,  A. Heyden,  
 S. Hirata,  G. Kedziora,  F. J. Keil,  C. Kelley,  Jihan Kim,  R. A. King,  
 R. Z. Khaliullin,  P. P. Korambath,  W. Kurlancheek,  A. M. Lee,  M. S. Lee,  
 S. V. Levchenko,  Ching Yeh Lin,  D. Liotard,  R. C. Lochan,  I. Lotan,  
 P. E. Maslen,  N. Nair,  D. P. O'Neill,  D. Neuhauser,  E. Neuscamman,  
 C. M. Oana,  R. Olson,  B. Peters,  R. Peverati,  P. A. Pieniazek,  
 Y. M. Rhee,  J. Ritchie,  M. A. Rohrdanz,  E. Rosta,  N. J. Russ,  
 H. F. Schaefer III,  N. E. Schultz,  N. Shenvi,  A. C. Simmonett,  A. Sodt,  
 D. Stuck,  K. S. Thanthiriwatte,  V. Vanovschi,  Tao Wang,  A. Warshel,  
 C. F. Williams,  Q. Wu,  X. Xu,  W. Zhang

 Please cite Q-Chem as follows:
 Y. Shao et al., Mol. Phys. 113, 184-215 (2015)
 DOI: 10.1080/00268976.2014.952696

 Q-Chem 5.1.2 for Intel X86 EM64T Linux

 Parts of Q-Chem use Armadillo 8.300.2 (Tropical Shenanigans).
 http://arma.sourceforge.net/

 Q-Chem begins on Wed Jul  3 12:01:24 2019  

Host: 
0

     Scratch files written to /scratch/xuedong/qchem35756//
 Dec218 |scratch|qcdevops|jenkins|workspace|build_RNUM 6581   
Processing $rem in /home/qwang/software/qchem5.1.2/config/preferences.
 MEM_TOTAL  4000 
Core orbitals will be frozen
Input Ideriv = 1
Curr. Ideriv = -1
Max.  Ideriv = 1

Checking the input file for inconsistencies... 	...done.

--------------------------------------------------------------
User input:
--------------------------------------------------------------
$molecule
0 1
--
0 1
Si     1.877277124    -0.264555006    -0.002147324
H     1.013054241     0.893525003     0.332506176
H     1.752218881    -1.299809326     1.036281626
H     1.434006711    -0.793004013    -1.311922261
O     3.481273335     0.161191906    -0.019552128
H     3.741996224     0.827557153    -0.657431446
--
0 1
Si    -2.603793419     0.282061079     0.044665778
H    -1.732691331    -0.906783538     0.211106605
H    -2.483837473     1.159432084     1.220132687
H    -2.164743089     0.994146517    -1.176555965
O    -4.205336784    -0.146088875    -0.033328860
H    -4.463463694    -0.712986609    -0.761972950
$end

$rem
BASIS = aug-cc-pVTZ
JOB_TYPE  =  BSSE
METHOD  =  MP2
SCF_CONVERGENCE  =  7
SCF_MAX_CYCLES  =  200
$end

--------------------------------------------------------------
 ----------------------------------------------------------------
             Standard Nuclear Orientation (Angstroms)
    I     Atom           X                Y                Z
 ----------------------------------------------------------------
    1      Si      2.2445130001    -0.2331666981     0.0399192926
    2      H       1.3593508188     0.9320846173     0.2822016661
    3      H       2.1348704710    -1.1863660615     1.1557666141
    4      H       1.8139057354    -0.8698243044    -1.2251901389
    5      O       3.8408736004     0.2180938975    -0.0087008037
    6      H       4.0915671895     0.8371945055    -0.6962880732
    7      Si     -2.2455209601     0.2364789361     0.0385637903
    8      H      -1.3542333301    -0.9202573446     0.2982567968
    9      H      -2.1439220858     1.2047827163     1.1421747822
   10      H      -1.8158243487     0.8588208699    -1.2339395490
   11      O      -3.8391416311    -0.2245702057    -0.0077346140
   12      H      -4.0854587638    -0.8509958629    -0.6902619164
 ----------------------------------------------------------------
 Molecular Point Group                 C1    NOp =  1
 Largest Abelian Subgroup              C1    NOp =  1
 Nuclear Repulsion Energy =   196.1047341700 hartrees
 There are       26 alpha and       26 beta electrons
 Requested basis set is aug-cc-pVTZ
 There are 132 shells and 376 basis functions

 Total QAlloc Memory Limit   4000 MB
 Mega-Array Size       188 MB
 MEM_STATIC part       192 MB

                       Distance Matrix (Angstroms)
             Si(  1)   H (  2)   H (  3)   H (  4)   O (  5)   H (  6)
   H (  2)  1.483248
   H (  3)  1.471640  2.419169
   H (  4)  1.480290  2.392849  2.423257
   O (  5)  1.659629  2.598531  2.497787  2.602309
   H (  6)  2.258159  2.903696  3.369505  2.895063  0.958597
   Si(  7)  4.514529  3.679447  4.739247  4.393168  6.086606  6.407773
   H (  8)  3.672847  3.285570  3.602774  3.515756  5.327213  5.808141
   H (  9)  4.747739  3.617574  4.901616  5.056957  6.173803  6.511251
   H ( 10)  4.393346  3.519345  5.049898  4.020352  5.823227  5.931847
   O ( 11)  6.083847  5.333501  6.161786  5.818548  7.692762  8.031039
   H ( 12)  6.401829  5.811283  6.497137  5.923597  8.027093  8.349478
             Si(  7)   H (  8)   H (  9)   H ( 10)   O ( 11)
   H (  8)  1.483197
   H (  9)  1.471697  2.419008
   H ( 10)  1.480275  2.392867  2.423480
   O ( 11)  1.659619  2.598534  2.497821  2.602139
   H ( 12)  2.258132  2.905436  3.369513  2.893147  0.958606
 
 A cutoff of  1.0D-10 yielded   7432 shell pairs
 There are     58426 function pairs (     75332 Cartesian)
 
 -------------------------------------------------------
 OpenMP Integral Computing Module                       
 Release: version 1.0, May 2013, Q-Chem Inc. Pittsburgh 
 -------------------------------------------------------
 Integral Job Info:
 Integral job number is                      11
 Integral operator is                         1
 short-range coefficients                     0
 long-range coefficients              100000000
 Omega coefficients                           0
 if combine SR and LR in K                    0
 Integral screening is                        0
 Integral computing path is                   2
 max size of driver memory is            800000
 size of driver memory is                776718
 size of scratch memory is             29531563
 max col of scratch BK array              10000
 max len of scratch array in speh3          662
 max len of scratch index in speh4           32
 max int batch size is                      520
 min int batch size is                       52
 fixed nKL is                                31
 max L of basis functions is                  3
 order of int derivative is                   0
 number of shells is                        132
 number of basis is                         428
 number of cartesian basis is               428
 number of contracted shell pairs          7432
 number of primitive shell pairs          24004
 maxK2 (contraction) of shell pair          169
 max number of K2 of shell pair               1
 max number of CS2 of shell pair           1284
 max number of PS2 of shell pair           2366
 mem total for path MDJ                  691168
 -------------------------------------------------------
 Smallest overlap matrix eigenvalue = 2.30E-05

 Scale SEOQF with 1.000000e-01/1.000000e-01/1.000000e-01

 Standard Electronic Orientation quadrupole field applied
 Nucleus-field energy     =     0.0000000153 hartrees
 Guess MOs from converged MOs on fragments

-----------------------------------------------------------------
 SCF on fragment 1 out of 2
/home/qwang/software/qchem5.1.2/exe/qcprog.exe /scratch/xuedong/qchem35756/Frg1.input /scratch/xuedong/qchem35756/Frg1/ > /dev/null 
 SCF on fragment 2 out of 2
/home/qwang/software/qchem5.1.2/exe/qcprog.exe /scratch/xuedong/qchem35756/Frg2.input /scratch/xuedong/qchem35756/Frg2/ > /dev/null 
-----------------------------------------------------------------
 Done with SCF on isolated fragments
-----------------------------------------------------------------

 User-specified occupied guess orbitals will be used
 A restricted Hartree-Fock SCF calculation will be
 performed using Pulay DIIS extrapolation
 SCF converges when DIIS error is below 1.0E-07
 using 6 threads for integral computing
 -------------------------------------------------------
 OpenMP Integral computing Module                
 Release: version 1.0, May 2013, Q-Chem Inc. Pittsburgh 
 -------------------------------------------------------
 ---------------------------------------
  Cycle       Energy         DIIS Error
 ---------------------------------------
    1    -732.4172353516      1.04E-04
    2    -732.4174932429      1.19E-05
    3    -732.4175002821      3.15E-06
    4    -732.4175007071      1.73E-06
    5    -732.4175007724      3.29E-07
    6    -732.4175007787      1.27E-07
    7    -732.4175007791      9.92E-08 Convergence criterion met
 ---------------------------------------
 SCF time:  CPU 392.12 s  wall 65.41 s

-----------------------------------------------------------------
 SCF CP correction for fragment 1 out of 2
/home/qwang/software/qchem5.1.2/exe/qcprog.exe /scratch/xuedong/qchem35756/Frg1.input /scratch/xuedong/qchem35756/Frg1BSSE/ > /dev/null 
 SCF CP correction for fragment 2 out of 2
/home/qwang/software/qchem5.1.2/exe/qcprog.exe /scratch/xuedong/qchem35756/Frg2.input /scratch/xuedong/qchem35756/Frg2BSSE/ > /dev/null 
-----------------------------------------------------------------
 Done with counterpoise correction on fragments
-----------------------------------------------------------------

 SCF   energy in the final basis set = -732.41750078
 Total energy in the final basis set = -732.41750078
 
 Components of the MP2 correlation energy:
        aaaa  correlation energy =        -0.0815258434 au
        abab  correlation energy =        -0.6093580924 au
        bbbb  correlation energy =        -0.0815258434 au
        non-Brillouin singles    =        -0.0000000000 au

 Total  MP2   correlation energy =                    -0.77240978 au
        MP2         total energy =                  -733.18991056 au
 
 --------------------------------------------------------------
 
                    Orbital Energies (a.u.)
 --------------------------------------------------------------
 
 Alpha MOs
 -- Occupied --
-68.798 -68.798 -20.564 -20.564  -6.143  -6.143  -4.250  -4.249
 -4.249  -4.249  -4.249  -4.249  -1.344  -1.344  -0.761  -0.759
 -0.655  -0.650  -0.558  -0.556  -0.554  -0.554  -0.479  -0.476
 -0.460  -0.460
 -- Virtual --
  0.026   0.030   0.047   0.049   0.054   0.062   0.063   0.067
  0.076   0.076   0.085   0.086   0.092   0.103   0.126   0.131
  0.137   0.146   0.155   0.160   0.161   0.172   0.180   0.183
  0.195   0.202   0.209   0.210   0.221   0.235   0.236   0.238
  0.243   0.255   0.261   0.264   0.277   0.278   0.278   0.283
  0.286   0.291   0.300   0.308   0.316   0.320   0.338   0.342
  0.344   0.353   0.355   0.366   0.375   0.379   0.396   0.401
  0.419   0.423   0.427   0.436   0.440   0.442   0.449   0.449
  0.470   0.478   0.489   0.490   0.517   0.523   0.541   0.544
  0.557   0.566   0.569   0.584   0.596   0.600   0.606   0.619
  0.627   0.628   0.633   0.638   0.642   0.647   0.656   0.668
  0.671   0.691   0.694   0.701   0.706   0.742   0.744   0.778
  0.788   0.802   0.812   0.814   0.827   0.829   0.838   0.854
  0.880   0.884   0.903   0.909   0.930   0.930   0.958   0.970
  0.974   0.979   0.990   1.001   1.002   1.016   1.021   1.024
  1.032   1.033   1.035   1.054   1.055   1.068   1.072   1.095
  1.097   1.111   1.113   1.116   1.133   1.145   1.155   1.159
  1.163   1.176   1.192   1.202   1.203   1.207   1.210   1.222
  1.232   1.249   1.264   1.279   1.296   1.316   1.317   1.323
  1.340   1.344   1.358   1.364   1.367   1.368   1.380   1.388
  1.396   1.408   1.416   1.418   1.435   1.437   1.450   1.456
  1.462   1.474   1.482   1.483   1.496   1.500   1.522   1.537
  1.538   1.544   1.568   1.579   1.653   1.663   1.676   1.679
  1.736   1.762   1.779   1.828   1.828   1.880   1.890   1.923
  1.934   1.946   1.970   1.971   1.977   1.987   2.002   2.014
  2.020   2.043   2.055   2.061   2.069   2.089   2.162   2.164
  2.237   2.239   2.252   2.254   2.292   2.349   2.403   2.410
  2.420   2.434   2.453   2.487   2.490   2.521   2.583   2.589
  2.623   2.652   2.701   2.721   2.735   2.748   2.839   2.873
  2.883   2.895   3.034   3.049   3.099   3.109   3.134   3.150
  3.239   3.317   3.394   3.414   3.580   3.601   3.619   3.658
  3.709   3.720   3.895   3.898   3.990   3.995   4.001   4.025
  4.051   4.065   4.099   4.113   4.126   4.131   4.131   4.146
  4.166   4.172   4.186   4.190   4.205   4.207   4.217   4.241
  4.295   4.300   4.328   4.329   4.342   4.347   4.371   4.385
  4.406   4.416   4.448   4.449   4.482   4.522   4.527   4.530
  4.535   4.546   4.576   4.583   4.637   4.677   4.683   4.699
  4.756   4.768   4.776   4.787   4.817   4.822   4.823   4.827
  4.869   4.883   5.023   5.025   5.063   5.100   5.103   5.112
  5.150   5.161   5.420   5.446   5.447   5.469   5.682   5.687
  6.352   6.364   6.718   6.719   6.754   6.757   6.815   6.815
  6.858   6.860   7.213   7.214   7.259   7.262   7.282   7.285
  7.324   7.325   7.372   7.383   7.578   7.579   7.744   7.779
  8.109   8.144   8.978   9.115  14.924  15.029
 --------------------------------------------------------------
 
          Ground-State Mulliken Net Atomic Charges

     Atom                 Charge (a.u.)
  ----------------------------------------
      1 Si                    1.081757
      2 H                    -0.222492
      3 H                    -0.169806
      4 H                    -0.214462
      5 O                    -0.592081
      6 H                     0.117080
      7 Si                    1.082848
      8 H                    -0.222710
      9 H                    -0.170709
     10 H                    -0.214674
     11 O                    -0.592072
     12 H                     0.117322
  ----------------------------------------
  Sum of atomic charges =    -0.000000

 -----------------------------------------------------------------
                    Cartesian Multipole Moments
 -----------------------------------------------------------------
    Charge (ESU x 10^10)
                 0.0000
    Dipole Moment (Debye)
         X       0.0052      Y      -0.0071      Z      -2.1855
       Tot       2.1856
    Quadrupole Moments (Debye-Ang)
        XX     -48.4689     XY       7.4174     YY     -40.6813
        XZ      -0.0440     YZ       0.0102     ZZ     -41.2666
    Octopole Moments (Debye-Ang^2)
       XXX       0.3571    XXY      -0.0774    XYY      -0.1509
       YYY      -0.1459    XXZ     -43.6591    XYZ     -11.4341
       YYZ      -3.7561    XZZ       0.0996    YZZ       0.0023
       ZZZ      -1.7959
    Hexadecapole Moments (Debye-Ang^3)
      XXXX   -2153.6299   XXXY     153.0986   XXYY    -302.7354
      XYYY      25.0385   YYYY    -105.7882   XXXZ      -1.1589
      XXYZ       0.0537   XYYZ       0.1833   YYYZ       0.0191
      XXZZ    -313.0911   XYZZ      18.8597   YYZZ     -33.3695
      XZZZ      -0.2462   YZZZ       0.0158   ZZZZ     -93.4599
 -----------------------------------------------------------------

 ---------------------------------------------------------------------
 *                     Fragment's binding energy                     *
 ---------------------------------------------------------------------
    Fragment           E(TOTAL)         E(CP-CORR)           DE(BSSE)
 ---------------------------------------------------------------------
           1    -366.5940722259    -366.5943138034       0.0002415775
           2    -366.5940719209    -366.5943133067       0.0002413858
     Complex    -733.1899105584
 ---------------------------------------------------------------------
  DE, kJ/mol      -4.6377685506      -3.3697333870
 ---------------------------------------------------------------------

Archival summary:
1\1\gm4.localdomain\SP\MP2\BasisUnspecified\i228\xuedong\WedJul312:12:182019WedJul312:12:182019\0\\#,MP2,BasisUnspecified,\\0,1\Si\H,1,1.47164\H,1,1.48029,2,110.351\H,1,1.48325,2,109.909,3,118.624,0\O,1,1.65963,2,105.664,3,-121.048,0\H,5,0.958597,1,116.626,2,179.222,0\H,4,3.28557,1,92.91,2,-61.5255,0\Si,7,1.4832,4,93.1967,1,-160.485,0\H,8,1.4717,7,109.898,4,-61.8261,0\H,8,1.48027,7,107.696,4,58.4348,0\O,8,1.65962,7,111.423,4,-178.599,0\H,11,0.958606,8,116.624,7,-61.7223,0\\HF=-732.417501\MP2=-733.189911\\@

 Total job time:  653.85s(wall), 1805.36s(cpu) 
 Wed Jul  3 12:12:18 2019

        *************************************************************
        *                                                           *
        *  Thank you very much for using Q-Chem.  Have a nice day.  *
        *                                                           *
        *************************************************************


