
Running Job 1 of 1 ../qm_inp/SiH3OH_SiH3OH.con3.105.qcinp
qchem ../qm_inp/SiH3OH_SiH3OH.con3.105.qcinp_39130.0 /scratch/xuedong/qchem39130/ 1
/home/qwang/software/qchem5.1.2/exe/qcprog.exe_s ../qm_inp/SiH3OH_SiH3OH.con3.105.qcinp_39130.0 /scratch/xuedong/qchem39130/
Check license passed

                  Welcome to Q-Chem
     A Quantum Leap Into The Future Of Chemistry


 Q-Chem 5.1, Q-Chem, Inc., Pleasanton, CA (2018)

 Yihan Shao,  Zhengting Gan,  E. Epifanovsky,  A. T. B. Gilbert,  M. Wormit,  
 J. Kussmann,  A. W. Lange,  A. Behn,  Jia Deng,  Xintian Feng,  D. Ghosh,  
 M. Goldey,  P. R. Horn,  L. D. Jacobson,  I. Kaliman,  T. Kus,  A. Landau,  
 Jie Liu,  E. I. Proynov,  R. M. Richard,  R. P. Steele,  E. J. Sundstrom,  
 H. L. Woodcock III,  P. M. Zimmerman,  D. Zuev,  B. Albrecht,  E. Alguire,  
 S. A. Baeppler,  D. Barton,  Z. Benda,  Y. A. Bernard,  E. J. Berquist,  
 K. B. Bravaya,  H. Burton,  D. Casanova,  Chun-Min Chang,  Yunqing Chen,  
 A. Chien,  K. D. Closser,  M. P. Coons,  S. Coriani,  S. Dasgupta,  
 A. L. Dempwolff,  M. Diedenhofen,  Hainam Do,  R. G. Edgar,  Po-Tung Fang,  
 S. Faraji,  S. Fatehi,  Qingguo Feng,  K. D. Fenk,  J. Fosso-Tande,  
 J. Gayvert,  Qinghui Ge,  A. Ghysels,  G. Gidofalvi,  J. Gomes,  
 J. Gonthier,  A. Gunina,  D. Hait,  M. W. D. Hanson-Heine,  
 P. H. P. Harbach,  A. W. Hauser,  J. E. Herr,  E. G. Hohenstein,  
 Z. C. Holden,  Kerwin Hui,  B. C. Huynh,  T.-C. Jagau,  Hyunjun Ji,  
 B. Kaduk,  K. Khistyaev,  Jaehoon Kim,  P. Klunzinger,  K. Koh,  
 D. Kosenkov,  L. Koulias,  T. Kowalczyk,  C. M. Krauter,  A. Kunitsa,  
 Ka Un Lao,  A. Laurent,  K. V. Lawler,  Joonho Lee,  D. Lefrancois,  
 S. Lehtola,  D. S. Levine,  Yi-Pei Li,  You-Sheng Lin,  Fenglai Liu,  
 E. Livshits,  A. Luenser,  P. Manohar,  E. Mansoor,  S. F. Manzer,  
 Shan-Ping Mao,  Yuezhi Mao,  N. Mardirossian,  A. V. Marenich,  
 T. Markovich,  L. A. Martinez-Martinez,  S. A. Maurer,  N. J. Mayhall,  
 S. C. McKenzie,  J.-M. Mewes,  A. F. Morrison,  J. W. Mullinax,  K. Nanda,  
 T. S. Nguyen-Beck,  R. Olivares-Amaya,  J. A. Parkhill,  T. M. Perrine,  
 F. Plasser,  P. Pokhilko,  S. Prager,  A. Prociuk,  E. Ramos,  D. R. Rehn,  
 F. Rob,  M. Schneider,  N. Sergueev,  S. M. Sharada,  S. Sharma,  
 D. W. Small,  T. Stauch,  T. Stein,  Yu-Chuan Su,  A. J. W. Thom,  
 A. Tkatchenko,  T. Tsuchimochi,  N. M. Tubman,  L. Vogt,  M. L. Vidal,  
 O. Vydrov,  M. A. Watson,  J. Wenzel,  M. de Wergifosse,  T. A. Wesolowski,  
 A. White,  J. Witte,  A. Yamada,  Jun Yang,  K. Yao,  S. Yeganeh,  
 S. R. Yost,  Zhi-Qiang You,  A. Zech,  Igor Ying Zhang,  Xing Zhang,  
 Yan Zhao,  Ying Zhu,  B. R. Brooks,  G. K. L. Chan,  C. J. Cramer,  
 M. S. Gordon,  W. J. Hehre,  A. Klamt,  M. W. Schmidt,  C. D. Sherrill,  
 D. G. Truhlar,  A. Aspuru-Guzik,  R. Baer,  A. T. Bell,  N. A. Besley,  
 Jeng-Da Chai,  A. E. DePrince, III,  R. A. DiStasio Jr.,  A. Dreuw,  
 B. D. Dunietz,  T. R. Furlani,  Chao-Ping Hsu,  Yousung Jung,  Jing Kong,  
 D. S. Lambrecht,  WanZhen Liang,  C. Ochsenfeld,  V. A. Rassolov,  
 L. V. Slipchenko,  J. E. Subotnik,  T. Van Voorhis,  J. M. Herbert,  
 A. I. Krylov,  P. M. W. Gill,  M. Head-Gordon

 Contributors to earlier versions of Q-Chem not listed above: 
 R. D. Adamson,  B. Austin,  J. Baker,  G. J. O. Beran,  K. Brandhorst,  
 S. T. Brown,  E. F. C. Byrd,  A. K. Chakraborty,  C.-L. Cheng,  
 Siu Hung Chien,  D. M. Chipman,  D. L. Crittenden,  H. Dachsel,  
 R. J. Doerksen,  A. D. Dutoi,  L. Fusti-Molnar,  W. A. Goddard III,  
 A. Golubeva-Zadorozhnaya,  S. R. Gwaltney,  G. Hawkins,  A. Heyden,  
 S. Hirata,  G. Kedziora,  F. J. Keil,  C. Kelley,  Jihan Kim,  R. A. King,  
 R. Z. Khaliullin,  P. P. Korambath,  W. Kurlancheek,  A. M. Lee,  M. S. Lee,  
 S. V. Levchenko,  Ching Yeh Lin,  D. Liotard,  R. C. Lochan,  I. Lotan,  
 P. E. Maslen,  N. Nair,  D. P. O'Neill,  D. Neuhauser,  E. Neuscamman,  
 C. M. Oana,  R. Olson,  B. Peters,  R. Peverati,  P. A. Pieniazek,  
 Y. M. Rhee,  J. Ritchie,  M. A. Rohrdanz,  E. Rosta,  N. J. Russ,  
 H. F. Schaefer III,  N. E. Schultz,  N. Shenvi,  A. C. Simmonett,  A. Sodt,  
 D. Stuck,  K. S. Thanthiriwatte,  V. Vanovschi,  Tao Wang,  A. Warshel,  
 C. F. Williams,  Q. Wu,  X. Xu,  W. Zhang

 Please cite Q-Chem as follows:
 Y. Shao et al., Mol. Phys. 113, 184-215 (2015)
 DOI: 10.1080/00268976.2014.952696

 Q-Chem 5.1.2 for Intel X86 EM64T Linux

 Parts of Q-Chem use Armadillo 8.300.2 (Tropical Shenanigans).
 http://arma.sourceforge.net/

 Q-Chem begins on Tue Jul  9 19:11:53 2019  

Host: 
0

     Scratch files written to /scratch/xuedong/qchem39130//
 Dec218 |scratch|qcdevops|jenkins|workspace|build_RNUM 6581   
Processing $rem in /home/qwang/software/qchem5.1.2/config/preferences.
 MEM_TOTAL  4000 
Core orbitals will be frozen
Input Ideriv = 1
Curr. Ideriv = -1
Max.  Ideriv = 1

Checking the input file for inconsistencies... 	...done.

--------------------------------------------------------------
User input:
--------------------------------------------------------------
$molecule
0 1
--
0 1
Si     2.376764240     0.137270735     0.463705189
H     2.850818527    -0.458840989     1.729658577
H     1.788718359     1.464378485     0.699128015
H     3.512521005     0.224749011    -0.476920657
O     1.131720522    -0.774155642    -0.187458262
H     1.331328116    -1.685531717    -0.412871535
--
0 1
Si    -2.614733416     0.183742599    -0.053600656
H    -2.921069900    -1.185753923     0.426877905
H    -3.818942758     0.754485758    -0.686030487
H    -2.253734394     0.996560051     1.133345289
O    -1.427815418     0.193907849    -1.201116377
H    -0.564082648    -0.130706700    -0.907110202
$end

$rem
BASIS = aug-cc-pVTZ
JOB_TYPE  =  BSSE
METHOD  =  MP2
SCF_CONVERGENCE  =  7
SCF_MAX_CYCLES  =  200
$end

--------------------------------------------------------------
 ----------------------------------------------------------------
             Standard Nuclear Orientation (Angstroms)
    I     Atom           X                Y                Z
 ----------------------------------------------------------------
    1      Si     -2.5266111199     0.3081620518     0.1401733900
    2      H      -3.1961764797     1.0717361391    -0.9328370840
    3      H      -1.9066877567     1.2148985877     1.1179058296
    4      H      -3.5202860032    -0.5688659927     0.7927106654
    5      O      -1.2551056169    -0.5886063181    -0.4794442235
    6      H      -1.4701994097    -1.2479409295    -1.1429750938
    7      Si      2.4847714499     0.3380137043    -0.1243402000
    8      H       2.6520485967     0.1133380011    -1.5809669873
    9      H       3.7909136632     0.1783524304     0.5422452636
   10      H       2.0113721883     1.7321499739     0.0548534979
   11      O       1.4640766036    -0.7609732692     0.5656450601
   12      H       0.5530026886    -0.7434920973     0.2377925561
 ----------------------------------------------------------------
 Molecular Point Group                 C1    NOp =  1
 Largest Abelian Subgroup              C1    NOp =  1
 Nuclear Repulsion Energy =   213.7467406933 hartrees
 There are       26 alpha and       26 beta electrons
 Requested basis set is aug-cc-pVTZ
 There are 132 shells and 376 basis functions

 Total QAlloc Memory Limit   4000 MB
 Mega-Array Size       188 MB
 MEM_STATIC part       192 MB

                       Distance Matrix (Angstroms)
             Si(  1)   H (  2)   H (  3)   H (  4)   O (  5)   H (  6)
   H (  2)  1.477401
   H (  3)  1.470523  2.426690
   H (  4)  1.477286  2.402943  2.427193
   O (  5)  1.674767  2.594236  2.495740  2.598040
   H (  6)  2.276825  2.898975  3.371599  2.900151  0.959823
   Si(  7)  5.018447  5.784910  4.647259  6.141997  3.869290  4.381171
   H (  8)  5.460659  5.961572  5.411047  6.648117  4.119701  4.363238
   H (  9)  6.331637  7.196765  5.819663  7.353551  5.205227  5.705575
   H ( 10)  4.756923  5.341371  4.092533  6.036419  4.042433  4.736779
   O ( 11)  4.153272  5.227067  3.946025  4.993229  2.918197  3.430233
   H ( 12)  3.255692  4.326866  3.264961  4.114621  1.951326  2.500867
             Si(  7)   H (  8)   H (  9)   H ( 10)   O ( 11)
   H (  8)  1.483315
   H (  9)  1.475071  2.410243
   H ( 10)  1.483183  2.388918  2.412179
   O ( 11)  1.650960  2.604542  2.509393  2.603095
   H ( 12)  2.243329  2.906551  3.380319  2.879082  0.968426
 
 A cutoff of  1.0D-10 yielded   7984 shell pairs
 There are     64336 function pairs (     83665 Cartesian)
 
 -------------------------------------------------------
 OpenMP Integral Computing Module                       
 Release: version 1.0, May 2013, Q-Chem Inc. Pittsburgh 
 -------------------------------------------------------
 Integral Job Info:
 Integral job number is                      11
 Integral operator is                         1
 short-range coefficients                     0
 long-range coefficients              100000000
 Omega coefficients                           0
 if combine SR and LR in K                    0
 Integral screening is                        0
 Integral computing path is                   2
 max size of driver memory is            800000
 size of driver memory is                776718
 size of scratch memory is             29531563
 max col of scratch BK array              10000
 max len of scratch array in speh3          662
 max len of scratch index in speh4           32
 max int batch size is                      520
 min int batch size is                       52
 fixed nKL is                                31
 max L of basis functions is                  3
 order of int derivative is                   0
 number of shells is                        132
 number of basis is                         428
 number of cartesian basis is               428
 number of contracted shell pairs          7984
 number of primitive shell pairs          25253
 maxK2 (contraction) of shell pair          169
 max number of K2 of shell pair               1
 max number of CS2 of shell pair           1335
 max number of PS2 of shell pair           2392
 mem total for path MDJ                  726392
 -------------------------------------------------------
 Smallest overlap matrix eigenvalue = 2.60E-05

 Scale SEOQF with 1.000000e-01/1.000000e-01/1.000000e-01

 Standard Electronic Orientation quadrupole field applied
 Nucleus-field energy     =     0.0000000093 hartrees
 Guess MOs from converged MOs on fragments

-----------------------------------------------------------------
 SCF on fragment 1 out of 2
/home/qwang/software/qchem5.1.2/exe/qcprog.exe /scratch/xuedong/qchem39130/Frg1.input /scratch/xuedong/qchem39130/Frg1/ > /dev/null 
 SCF on fragment 2 out of 2
/home/qwang/software/qchem5.1.2/exe/qcprog.exe /scratch/xuedong/qchem39130/Frg2.input /scratch/xuedong/qchem39130/Frg2/ > /dev/null 
-----------------------------------------------------------------
 Done with SCF on isolated fragments
-----------------------------------------------------------------

 User-specified occupied guess orbitals will be used
 A restricted Hartree-Fock SCF calculation will be
 performed using Pulay DIIS extrapolation
 SCF converges when DIIS error is below 1.0E-07
 using 6 threads for integral computing
 -------------------------------------------------------
 OpenMP Integral computing Module                
 Release: version 1.0, May 2013, Q-Chem Inc. Pittsburgh 
 -------------------------------------------------------
 ---------------------------------------
  Cycle       Energy         DIIS Error
 ---------------------------------------
    1    -732.4190453376      3.74E-04
    2    -732.4228543283      9.40E-05
    3    -732.4232017083      3.38E-05
    4    -732.4232358159      1.53E-05
    5    -732.4232422238      4.24E-06
    6    -732.4232427895      7.27E-07
    7    -732.4232428107      1.96E-07
    8    -732.4232428116      8.36E-08 Convergence criterion met
 ---------------------------------------
 SCF time:  CPU 533.43 s  wall 88.97 s

-----------------------------------------------------------------
 SCF CP correction for fragment 1 out of 2
/home/qwang/software/qchem5.1.2/exe/qcprog.exe /scratch/xuedong/qchem39130/Frg1.input /scratch/xuedong/qchem39130/Frg1BSSE/ > /dev/null 
 SCF CP correction for fragment 2 out of 2
/home/qwang/software/qchem5.1.2/exe/qcprog.exe /scratch/xuedong/qchem39130/Frg2.input /scratch/xuedong/qchem39130/Frg2BSSE/ > /dev/null 
-----------------------------------------------------------------
 Done with counterpoise correction on fragments
-----------------------------------------------------------------

 SCF   energy in the final basis set = -732.42324281
 Total energy in the final basis set = -732.42324281
 
 Components of the MP2 correlation energy:
        aaaa  correlation energy =        -0.0821408782 au
        abab  correlation energy =        -0.6105959709 au
        bbbb  correlation energy =        -0.0821408782 au
        non-Brillouin singles    =        -0.0000000000 au

 Total  MP2   correlation energy =                    -0.77487773 au
        MP2         total energy =                  -733.19812054 au
 
 --------------------------------------------------------------
 
                    Orbital Energies (a.u.)
 --------------------------------------------------------------
 
 Alpha MOs
 -- Occupied --
-68.813 -68.781 -20.587 -20.537  -6.158  -6.126  -4.265  -4.264
 -4.264  -4.233  -4.232  -4.232  -1.367  -1.319  -0.779  -0.740
 -0.675  -0.636  -0.576  -0.573  -0.536  -0.533  -0.493  -0.477
 -0.460  -0.442
 -- Virtual --
  0.024   0.036   0.041   0.050   0.057   0.061   0.062   0.064
  0.073   0.077   0.078   0.085   0.100   0.107   0.122   0.134
  0.141   0.146   0.153   0.157   0.164   0.168   0.178   0.181
  0.189   0.199   0.209   0.211   0.216   0.226   0.232   0.235
  0.246   0.253   0.254   0.265   0.267   0.278   0.282   0.286
  0.299   0.301   0.317   0.320   0.327   0.329   0.338   0.351
  0.353   0.360   0.369   0.371   0.376   0.393   0.399   0.407
  0.413   0.421   0.425   0.433   0.435   0.448   0.454   0.460
  0.466   0.483   0.516   0.518   0.529   0.532   0.552   0.560
  0.568   0.580   0.593   0.595   0.601   0.608   0.611   0.623
  0.624   0.633   0.640   0.642   0.647   0.654   0.663   0.670
  0.675   0.680   0.685   0.693   0.697   0.720   0.724   0.749
  0.752   0.794   0.800   0.809   0.828   0.843   0.851   0.880
  0.887   0.919   0.929   0.939   0.949   0.961   0.967   0.970
  0.974   0.982   0.990   1.000   1.011   1.014   1.036   1.041
  1.054   1.055   1.065   1.084   1.090   1.099   1.107   1.113
  1.117   1.134   1.141   1.146   1.163   1.179   1.185   1.189
  1.192   1.201   1.216   1.223   1.232   1.243   1.247   1.264
  1.270   1.283   1.296   1.298   1.309   1.315   1.324   1.328
  1.335   1.353   1.356   1.361   1.368   1.372   1.382   1.393
  1.395   1.407   1.416   1.425   1.427   1.447   1.450   1.453
  1.463   1.477   1.492   1.500   1.515   1.530   1.540   1.549
  1.574   1.576   1.618   1.656   1.668   1.709   1.740   1.757
  1.802   1.819   1.832   1.843   1.864   1.917   1.928   1.938
  1.943   1.953   1.973   1.993   2.000   2.008   2.020   2.035
  2.052   2.067   2.086   2.107   2.135   2.151   2.193   2.211
  2.229   2.239   2.255   2.272   2.317   2.413   2.423   2.448
  2.487   2.494   2.541   2.567   2.586   2.633   2.647   2.688
  2.702   2.710   2.775   2.845   2.853   2.889   2.904   2.932
  2.977   2.983   3.067   3.082   3.137   3.170   3.184   3.212
  3.329   3.354   3.373   3.443   3.589   3.615   3.629   3.698
  3.732   3.765   3.924   3.970   3.985   3.998   4.004   4.008
  4.030   4.074   4.105   4.110   4.117   4.130   4.135   4.144
  4.152   4.168   4.179   4.187   4.201   4.207   4.228   4.263
  4.293   4.300   4.332   4.350   4.361   4.379   4.398   4.410
  4.416   4.422   4.465   4.470   4.475   4.521   4.524   4.554
  4.569   4.577   4.599   4.643   4.666   4.699   4.729   4.747
  4.763   4.779   4.793   4.809   4.825   4.835   4.837   4.885
  4.917   4.969   5.025   5.038   5.066   5.115   5.124   5.166
  5.201   5.273   5.364   5.416   5.449   5.517   5.712   5.808
  6.404   6.461   6.758   6.780   6.797   6.825   6.853   6.917
  6.941   7.014   7.213   7.232   7.294   7.310   7.325   7.356
  7.358   7.424   7.444   7.556   7.626   7.719   7.762   7.824
  8.169   8.253   9.134   9.314  14.855  16.130
 --------------------------------------------------------------
 
          Ground-State Mulliken Net Atomic Charges

     Atom                 Charge (a.u.)
  ----------------------------------------
      1 Si                    0.991876
      2 H                    -0.205544
      3 H                    -0.164883
      4 H                    -0.210962
      5 O                    -0.513140
      6 H                     0.088698
      7 Si                    1.178323
      8 H                    -0.270520
      9 H                    -0.261040
     10 H                    -0.266462
     11 O                    -0.575735
     12 H                     0.209389
  ----------------------------------------
  Sum of atomic charges =     0.000000

 -----------------------------------------------------------------
                    Cartesian Multipole Moments
 -----------------------------------------------------------------
    Charge (ESU x 10^10)
                 0.0000
    Dipole Moment (Debye)
         X      -3.0047      Y      -0.0175      Z      -1.5898
       Tot       3.3994
    Quadrupole Moments (Debye-Ang)
        XX     -40.9244     XY       2.9576     YY     -42.2728
        XZ       0.1854     YZ       3.4531     ZZ     -42.4473
    Octopole Moments (Debye-Ang^2)
       XXX     -13.5247    XXY      -1.2093    XYY      -6.5762
       YYY     -13.4660    XXZ      -3.7325    XYZ      -3.7474
       YYZ      -5.0294    XZZ      -6.4727    YZZ      -5.7637
       ZZZ      -1.6259
    Hexadecapole Moments (Debye-Ang^3)
      XXXX   -1429.3940   XXXY      -0.0322   XXYY    -255.7903
      XYYY       3.4498   YYYY    -146.1489   XXXZ       3.9575
      XXYZ      14.8331   XYYZ       4.7125   YYYZ       7.2325
      XXZZ    -259.5966   XYZZ       7.8076   YYZZ     -39.6307
      XZZZ      18.7329   YZZZ       7.0112   ZZZZ    -114.8246
 -----------------------------------------------------------------

 ---------------------------------------------------------------------
 *                     Fragment's binding energy                     *
 ---------------------------------------------------------------------
    Fragment           E(TOTAL)         E(CP-CORR)           DE(BSSE)
 ---------------------------------------------------------------------
           1    -366.5939975002    -366.5946544614       0.0006569613
           2    -366.5937813148    -366.5943017159       0.0005204010
     Complex    -733.1981205390
 ---------------------------------------------------------------------
  DE, kJ/mol     -27.1525186086     -24.0613171474
 ---------------------------------------------------------------------

Archival summary:
1\1\gm4.localdomain\SP\MP2\BasisUnspecified\i228\xuedong\TueJul919:25:092019TueJul919:25:092019\0\\#,MP2,BasisUnspecified,\\0,1\Si\H,1,1.47507\H,1,1.48318,2,109.255\H,1,1.48331,2,109.118,3,117.004,0\O,1,1.65096,2,106.65,3,-121.483,0\H,5,0.968426,1,115.349,2,178.017,0\O,6,1.95133,5,176.028,1,-14.2043,0\H,7,0.959823,6,114.031,5,114.481,0\Si,7,1.67477,6,127.59,5,-79.6373,0\H,9,1.47052,7,104.839,6,14.2837,0\H,9,1.47729,7,110.867,6,-105.39,0\H,9,1.4774,7,110.617,6,133.778,0\\HF=-732.423243\MP2=-733.198121\\@

 Total job time:  796.21s(wall), 2239.47s(cpu) 
 Tue Jul  9 19:25:09 2019

        *************************************************************
        *                                                           *
        *  Thank you very much for using Q-Chem.  Have a nice day.  *
        *                                                           *
        *************************************************************


