
Running Job 1 of 1 ../qm_inp/SiH3OH_SiH3OH.con2.090.qcinp
qchem ../qm_inp/SiH3OH_SiH3OH.con2.090.qcinp_26491.0 /scratch/xuedong/qchem26491/ 1
/home/qwang/software/qchem5.1.2/exe/qcprog.exe_s ../qm_inp/SiH3OH_SiH3OH.con2.090.qcinp_26491.0 /scratch/xuedong/qchem26491/
Check license passed

                  Welcome to Q-Chem
     A Quantum Leap Into The Future Of Chemistry


 Q-Chem 5.1, Q-Chem, Inc., Pleasanton, CA (2018)

 Yihan Shao,  Zhengting Gan,  E. Epifanovsky,  A. T. B. Gilbert,  M. Wormit,  
 J. Kussmann,  A. W. Lange,  A. Behn,  Jia Deng,  Xintian Feng,  D. Ghosh,  
 M. Goldey,  P. R. Horn,  L. D. Jacobson,  I. Kaliman,  T. Kus,  A. Landau,  
 Jie Liu,  E. I. Proynov,  R. M. Richard,  R. P. Steele,  E. J. Sundstrom,  
 H. L. Woodcock III,  P. M. Zimmerman,  D. Zuev,  B. Albrecht,  E. Alguire,  
 S. A. Baeppler,  D. Barton,  Z. Benda,  Y. A. Bernard,  E. J. Berquist,  
 K. B. Bravaya,  H. Burton,  D. Casanova,  Chun-Min Chang,  Yunqing Chen,  
 A. Chien,  K. D. Closser,  M. P. Coons,  S. Coriani,  S. Dasgupta,  
 A. L. Dempwolff,  M. Diedenhofen,  Hainam Do,  R. G. Edgar,  Po-Tung Fang,  
 S. Faraji,  S. Fatehi,  Qingguo Feng,  K. D. Fenk,  J. Fosso-Tande,  
 J. Gayvert,  Qinghui Ge,  A. Ghysels,  G. Gidofalvi,  J. Gomes,  
 J. Gonthier,  A. Gunina,  D. Hait,  M. W. D. Hanson-Heine,  
 P. H. P. Harbach,  A. W. Hauser,  J. E. Herr,  E. G. Hohenstein,  
 Z. C. Holden,  Kerwin Hui,  B. C. Huynh,  T.-C. Jagau,  Hyunjun Ji,  
 B. Kaduk,  K. Khistyaev,  Jaehoon Kim,  P. Klunzinger,  K. Koh,  
 D. Kosenkov,  L. Koulias,  T. Kowalczyk,  C. M. Krauter,  A. Kunitsa,  
 Ka Un Lao,  A. Laurent,  K. V. Lawler,  Joonho Lee,  D. Lefrancois,  
 S. Lehtola,  D. S. Levine,  Yi-Pei Li,  You-Sheng Lin,  Fenglai Liu,  
 E. Livshits,  A. Luenser,  P. Manohar,  E. Mansoor,  S. F. Manzer,  
 Shan-Ping Mao,  Yuezhi Mao,  N. Mardirossian,  A. V. Marenich,  
 T. Markovich,  L. A. Martinez-Martinez,  S. A. Maurer,  N. J. Mayhall,  
 S. C. McKenzie,  J.-M. Mewes,  A. F. Morrison,  J. W. Mullinax,  K. Nanda,  
 T. S. Nguyen-Beck,  R. Olivares-Amaya,  J. A. Parkhill,  T. M. Perrine,  
 F. Plasser,  P. Pokhilko,  S. Prager,  A. Prociuk,  E. Ramos,  D. R. Rehn,  
 F. Rob,  M. Schneider,  N. Sergueev,  S. M. Sharada,  S. Sharma,  
 D. W. Small,  T. Stauch,  T. Stein,  Yu-Chuan Su,  A. J. W. Thom,  
 A. Tkatchenko,  T. Tsuchimochi,  N. M. Tubman,  L. Vogt,  M. L. Vidal,  
 O. Vydrov,  M. A. Watson,  J. Wenzel,  M. de Wergifosse,  T. A. Wesolowski,  
 A. White,  J. Witte,  A. Yamada,  Jun Yang,  K. Yao,  S. Yeganeh,  
 S. R. Yost,  Zhi-Qiang You,  A. Zech,  Igor Ying Zhang,  Xing Zhang,  
 Yan Zhao,  Ying Zhu,  B. R. Brooks,  G. K. L. Chan,  C. J. Cramer,  
 M. S. Gordon,  W. J. Hehre,  A. Klamt,  M. W. Schmidt,  C. D. Sherrill,  
 D. G. Truhlar,  A. Aspuru-Guzik,  R. Baer,  A. T. Bell,  N. A. Besley,  
 Jeng-Da Chai,  A. E. DePrince, III,  R. A. DiStasio Jr.,  A. Dreuw,  
 B. D. Dunietz,  T. R. Furlani,  Chao-Ping Hsu,  Yousung Jung,  Jing Kong,  
 D. S. Lambrecht,  WanZhen Liang,  C. Ochsenfeld,  V. A. Rassolov,  
 L. V. Slipchenko,  J. E. Subotnik,  T. Van Voorhis,  J. M. Herbert,  
 A. I. Krylov,  P. M. W. Gill,  M. Head-Gordon

 Contributors to earlier versions of Q-Chem not listed above: 
 R. D. Adamson,  B. Austin,  J. Baker,  G. J. O. Beran,  K. Brandhorst,  
 S. T. Brown,  E. F. C. Byrd,  A. K. Chakraborty,  C.-L. Cheng,  
 Siu Hung Chien,  D. M. Chipman,  D. L. Crittenden,  H. Dachsel,  
 R. J. Doerksen,  A. D. Dutoi,  L. Fusti-Molnar,  W. A. Goddard III,  
 A. Golubeva-Zadorozhnaya,  S. R. Gwaltney,  G. Hawkins,  A. Heyden,  
 S. Hirata,  G. Kedziora,  F. J. Keil,  C. Kelley,  Jihan Kim,  R. A. King,  
 R. Z. Khaliullin,  P. P. Korambath,  W. Kurlancheek,  A. M. Lee,  M. S. Lee,  
 S. V. Levchenko,  Ching Yeh Lin,  D. Liotard,  R. C. Lochan,  I. Lotan,  
 P. E. Maslen,  N. Nair,  D. P. O'Neill,  D. Neuhauser,  E. Neuscamman,  
 C. M. Oana,  R. Olson,  B. Peters,  R. Peverati,  P. A. Pieniazek,  
 Y. M. Rhee,  J. Ritchie,  M. A. Rohrdanz,  E. Rosta,  N. J. Russ,  
 H. F. Schaefer III,  N. E. Schultz,  N. Shenvi,  A. C. Simmonett,  A. Sodt,  
 D. Stuck,  K. S. Thanthiriwatte,  V. Vanovschi,  Tao Wang,  A. Warshel,  
 C. F. Williams,  Q. Wu,  X. Xu,  W. Zhang

 Please cite Q-Chem as follows:
 Y. Shao et al., Mol. Phys. 113, 184-215 (2015)
 DOI: 10.1080/00268976.2014.952696

 Q-Chem 5.1.2 for Intel X86 EM64T Linux

 Parts of Q-Chem use Armadillo 8.300.2 (Tropical Shenanigans).
 http://arma.sourceforge.net/

 Q-Chem begins on Wed Jul  3 10:04:53 2019  

Host: 
0

     Scratch files written to /scratch/xuedong/qchem26491//
 Dec218 |scratch|qcdevops|jenkins|workspace|build_RNUM 6581   
Processing $rem in /home/qwang/software/qchem5.1.2/config/preferences.
 MEM_TOTAL  4000 
Core orbitals will be frozen
Input Ideriv = 1
Curr. Ideriv = -1
Max.  Ideriv = 1

Checking the input file for inconsistencies... 	...done.

--------------------------------------------------------------
User input:
--------------------------------------------------------------
$molecule
0 1
--
0 1
Si     1.877277124    -0.264555006    -0.002147324
H     1.013054241     0.893525003     0.332506176
H     1.752218881    -1.299809326     1.036281626
H     1.434006711    -0.793004013    -1.311922261
O     3.481273335     0.161191906    -0.019552128
H     3.741996224     0.827557153    -0.657431446
--
0 1
Si    -1.483516622     0.234581583     0.039693908
H    -0.612414534    -0.954263034     0.206134735
H    -1.363560676     1.111952588     1.215160816
H    -1.044466292     0.946667021    -1.181527835
O    -3.085059987    -0.193568370    -0.038300730
H    -3.343186897    -0.760466105    -0.766944820
$end

$rem
BASIS = aug-cc-pVTZ
JOB_TYPE  =  BSSE
METHOD  =  MP2
SCF_CONVERGENCE  =  7
SCF_MAX_CYCLES  =  200
$end

--------------------------------------------------------------
 ----------------------------------------------------------------
             Standard Nuclear Orientation (Angstroms)
    I     Atom           X                Y                Z
 ----------------------------------------------------------------
    1      Si      1.6810217437    -0.2412176880     0.0399816998
    2      H       0.8111996758     0.9355751637     0.2820387555
    3      H       1.5588462951    -1.1927194370     1.1559760263
    4      H       1.2421599551    -0.8723784492    -1.2250455022
    5      O       3.2831624931     0.1890708896    -0.0086389158
    6      H       3.5419791776     0.8047221651    -0.6963136372
    7      Si     -1.6819895457     0.2445554074     0.0385008091
    8      H      -0.8059523404    -0.9237231408     0.2984180434
    9      H      -1.5677536971     1.2116207299     1.1419619974
   10      H      -1.2441177920     0.8610077561    -1.2340824840
   11      O      -3.2815148650    -0.1955719726    -0.0077953920
   12      H      -3.5359930714    -0.8188241950    -0.6902338604
 ----------------------------------------------------------------
 Molecular Point Group                 C1    NOp =  1
 Largest Abelian Subgroup              C1    NOp =  1
 Nuclear Repulsion Energy =   214.5546631645 hartrees
 There are       26 alpha and       26 beta electrons
 Requested basis set is aug-cc-pVTZ
 There are 132 shells and 376 basis functions

 Total QAlloc Memory Limit   4000 MB
 Mega-Array Size       188 MB
 MEM_STATIC part       192 MB

                       Distance Matrix (Angstroms)
             Si(  1)   H (  2)   H (  3)   H (  4)   O (  5)   H (  6)
   H (  2)  1.483248
   H (  3)  1.471640  2.419169
   H (  4)  1.480290  2.392849  2.423257
   O (  5)  1.659629  2.598531  2.497787  2.602309
   H (  6)  2.258159  2.903696  3.369505  2.895063  0.958597
   Si(  7)  3.397914  2.598617  3.717193  3.375610  4.965686  5.305053
   H (  8)  2.591842  2.464232  2.529829  2.553104  4.248936  4.783463
   H (  9)  3.725539  2.544619  3.944195  4.223907  5.089291  5.445566
   H ( 10)  3.375586  2.555096  4.217438  3.030889  4.738088  4.816543
   O ( 11)  4.962977  4.256032  5.077181  4.733223  6.575936  6.930708
   H ( 12)  5.299442  4.787621  5.431913  4.808288  6.926854  7.261793
             Si(  7)   H (  8)   H (  9)   H ( 10)   O ( 11)
   H (  8)  1.483197
   H (  9)  1.471697  2.419008
   H ( 10)  1.480275  2.392867  2.423480
   O ( 11)  1.659619  2.598534  2.497821  2.602139
   H ( 12)  2.258132  2.905436  3.369513  2.893147  0.958606
 
 A cutoff of  1.0D-10 yielded   7965 shell pairs
 There are     63173 function pairs (     81516 Cartesian)
 
 -------------------------------------------------------
 OpenMP Integral Computing Module                       
 Release: version 1.0, May 2013, Q-Chem Inc. Pittsburgh 
 -------------------------------------------------------
 Integral Job Info:
 Integral job number is                      11
 Integral operator is                         1
 short-range coefficients                     0
 long-range coefficients              100000000
 Omega coefficients                           0
 if combine SR and LR in K                    0
 Integral screening is                        0
 Integral computing path is                   2
 max size of driver memory is            800000
 size of driver memory is                776718
 size of scratch memory is             29531563
 max col of scratch BK array              10000
 max len of scratch array in speh3          662
 max len of scratch index in speh4           32
 max int batch size is                      520
 min int batch size is                       52
 fixed nKL is                                31
 max L of basis functions is                  3
 order of int derivative is                   0
 number of shells is                        132
 number of basis is                         428
 number of cartesian basis is               428
 number of contracted shell pairs          7965
 number of primitive shell pairs          26009
 maxK2 (contraction) of shell pair          169
 max number of K2 of shell pair               1
 max number of CS2 of shell pair           1342
 max number of PS2 of shell pair           2600
 mem total for path MDJ                  705672
 -------------------------------------------------------
 Smallest overlap matrix eigenvalue = 1.63E-05

 Scale SEOQF with 1.000000e-01/1.000000e-01/1.000000e-01

 Standard Electronic Orientation quadrupole field applied
 Nucleus-field energy     =     0.0000000102 hartrees
 Guess MOs from converged MOs on fragments

-----------------------------------------------------------------
 SCF on fragment 1 out of 2
/home/qwang/software/qchem5.1.2/exe/qcprog.exe /scratch/xuedong/qchem26491/Frg1.input /scratch/xuedong/qchem26491/Frg1/ > /dev/null 
 SCF on fragment 2 out of 2
/home/qwang/software/qchem5.1.2/exe/qcprog.exe /scratch/xuedong/qchem26491/Frg2.input /scratch/xuedong/qchem26491/Frg2/ > /dev/null 
-----------------------------------------------------------------
 Done with SCF on isolated fragments
-----------------------------------------------------------------

 User-specified occupied guess orbitals will be used
 A restricted Hartree-Fock SCF calculation will be
 performed using Pulay DIIS extrapolation
 SCF converges when DIIS error is below 1.0E-07
 using 6 threads for integral computing
 -------------------------------------------------------
 OpenMP Integral computing Module                
 Release: version 1.0, May 2013, Q-Chem Inc. Pittsburgh 
 -------------------------------------------------------
 ---------------------------------------
  Cycle       Energy         DIIS Error
 ---------------------------------------
    1    -732.4056171672      3.69E-04
    2    -732.4104037736      8.12E-05
    3    -732.4107659806      2.15E-05
    4    -732.4107857375      1.11E-05
    5    -732.4107883269      2.19E-06
    6    -732.4107885999      6.22E-07
    7    -732.4107886248      1.33E-07
    8    -732.4107886257      4.41E-08 Convergence criterion met
 ---------------------------------------
 SCF time:  CPU 604.51 s  wall 100.81 s

-----------------------------------------------------------------
 SCF CP correction for fragment 1 out of 2
/home/qwang/software/qchem5.1.2/exe/qcprog.exe /scratch/xuedong/qchem26491/Frg1.input /scratch/xuedong/qchem26491/Frg1BSSE/ > /dev/null 
 SCF CP correction for fragment 2 out of 2
/home/qwang/software/qchem5.1.2/exe/qcprog.exe /scratch/xuedong/qchem26491/Frg2.input /scratch/xuedong/qchem26491/Frg2BSSE/ > /dev/null 
-----------------------------------------------------------------
 Done with counterpoise correction on fragments
-----------------------------------------------------------------

 SCF   energy in the final basis set = -732.41078863
 Total energy in the final basis set = -732.41078863
 
 Components of the MP2 correlation energy:
        aaaa  correlation energy =        -0.0831233723 au
        abab  correlation energy =        -0.6131938068 au
        bbbb  correlation energy =        -0.0831233723 au
        non-Brillouin singles    =        -0.0000000000 au

 Total  MP2   correlation energy =                    -0.77944055 au
        MP2         total energy =                  -733.19022918 au
 
 --------------------------------------------------------------
 
                    Orbital Energies (a.u.)
 --------------------------------------------------------------
 
 Alpha MOs
 -- Occupied --
-68.799 -68.799 -20.563 -20.563  -6.144  -6.143  -4.250  -4.250
 -4.250  -4.250  -4.250  -4.250  -1.344  -1.344  -0.772  -0.754
 -0.674  -0.636  -0.564  -0.560  -0.552  -0.547  -0.484  -0.475
 -0.461  -0.459
 -- Virtual --
  0.024   0.032   0.047   0.049   0.057   0.063   0.063   0.069
  0.076   0.081   0.089   0.089   0.099   0.102   0.127   0.129
  0.144   0.153   0.157   0.165   0.169   0.179   0.186   0.195
  0.199   0.212   0.214   0.222   0.222   0.235   0.237   0.240
  0.244   0.258   0.268   0.275   0.276   0.278   0.281   0.295
  0.308   0.309   0.313   0.316   0.320   0.332   0.342   0.352
  0.357   0.366   0.371   0.375   0.381   0.393   0.409   0.423
  0.425   0.434   0.446   0.449   0.458   0.459   0.466   0.474
  0.478   0.493   0.497   0.500   0.524   0.545   0.553   0.571
  0.582   0.585   0.613   0.614   0.617   0.625   0.629   0.642
  0.645   0.657   0.660   0.665   0.667   0.675   0.680   0.682
  0.714   0.723   0.726   0.737   0.754   0.765   0.794   0.795
  0.806   0.815   0.828   0.840   0.849   0.866   0.877   0.901
  0.911   0.921   0.936   0.941   0.961   0.962   0.974   0.986
  0.992   1.001   1.020   1.024   1.028   1.032   1.041   1.044
  1.050   1.059   1.074   1.077   1.105   1.107   1.110   1.128
  1.137   1.147   1.163   1.169   1.172   1.182   1.188   1.193
  1.200   1.211   1.231   1.246   1.249   1.259   1.265   1.276
  1.285   1.290   1.302   1.313   1.335   1.345   1.358   1.360
  1.366   1.380   1.385   1.394   1.403   1.408   1.421   1.421
  1.426   1.430   1.461   1.471   1.477   1.490   1.496   1.503
  1.512   1.522   1.544   1.570   1.574   1.596   1.603   1.639
  1.657   1.672   1.677   1.688   1.704   1.717   1.763   1.771
  1.801   1.846   1.861   1.883   1.902   1.924   1.969   1.970
  1.974   1.975   2.004   2.005   2.017   2.018   2.045   2.047
  2.065   2.084   2.102   2.107   2.117   2.182   2.189   2.223
  2.248   2.264   2.287   2.296   2.333   2.386   2.423   2.434
  2.436   2.457   2.510   2.524   2.553   2.589   2.607   2.624
  2.699   2.702   2.727   2.740   2.769   2.788   2.888   2.889
  2.900   2.917   3.058   3.070   3.130   3.156   3.182   3.212
  3.342   3.369   3.463   3.465   3.677   3.708   3.713   3.764
  3.818   3.886   3.921   3.983   4.013   4.016   4.077   4.086
  4.120   4.129   4.140   4.141   4.165   4.170   4.177   4.196
  4.198   4.207   4.226   4.246   4.247   4.258   4.276   4.287
  4.305   4.331   4.346   4.355   4.371   4.385   4.401   4.424
  4.443   4.473   4.477   4.498   4.519   4.545   4.564   4.580
  4.584   4.592   4.604   4.647   4.685   4.707   4.734   4.784
  4.797   4.797   4.800   4.824   4.872   4.873   4.897   4.898
  4.953   4.974   5.097   5.102   5.142   5.142   5.174   5.175
  5.207   5.226   5.451   5.452   5.493   5.497   5.707   5.708
  6.367   6.377   6.727   6.735   6.763   6.767   6.821   6.838
  6.867   6.871   7.217   7.218   7.268   7.281   7.289   7.294
  7.334   7.337   7.388   7.401   7.593   7.602   7.802   7.807
  8.159   8.177   9.165   9.271  15.047  15.063
 --------------------------------------------------------------
 
          Ground-State Mulliken Net Atomic Charges

     Atom                 Charge (a.u.)
  ----------------------------------------
      1 Si                    1.236921
      2 H                    -0.260593
      3 H                    -0.210320
      4 H                    -0.238411
      5 O                    -0.634018
      6 H                     0.106613
      7 Si                    1.234185
      8 H                    -0.259825
      9 H                    -0.210394
     10 H                    -0.237616
     11 O                    -0.633419
     12 H                     0.106879
  ----------------------------------------
  Sum of atomic charges =     0.000000

 -----------------------------------------------------------------
                    Cartesian Multipole Moments
 -----------------------------------------------------------------
    Charge (ESU x 10^10)
                 0.0000
    Dipole Moment (Debye)
         X       0.0034      Y      -0.0078      Z      -2.1640
       Tot       2.1640
    Quadrupole Moments (Debye-Ang)
        XX     -47.7014     XY       6.6342     YY     -40.6360
        XZ      -0.0431     YZ       0.0095     ZZ     -41.1813
    Octopole Moments (Debye-Ang^2)
       XXX       0.2562    XXY      -0.0600    XYY      -0.1319
       YYY      -0.1451    XXZ     -33.3935    XYZ      -9.4302
       YYZ      -3.5483    XZZ       0.0843    YZZ       0.0017
       ZZZ      -1.6845
    Hexadecapole Moments (Debye-Ang^3)
      XXXX   -1412.1677   XXXY     105.0512   XXYY    -203.0958
      XYYY      19.3529   YYYY    -104.8516   XXXZ      -0.8343
      XXYZ       0.0475   XYYZ       0.1497   YYYZ       0.0126
      XXZZ    -209.0233   XYZZ      14.9404   YYZZ     -33.2445
      XZZZ      -0.2080   YZZZ       0.0133   ZZZZ     -93.1991
 -----------------------------------------------------------------

 ---------------------------------------------------------------------
 *                     Fragment's binding energy                     *
 ---------------------------------------------------------------------
    Fragment           E(TOTAL)         E(CP-CORR)           DE(BSSE)
 ---------------------------------------------------------------------
           1    -366.5940722259    -366.5948116457       0.0007394197
           2    -366.5940719209    -366.5948092768       0.0007373559
     Complex    -733.1902291771
 ---------------------------------------------------------------------
  DE, kJ/mol      -5.4743118847      -1.5969913969
 ---------------------------------------------------------------------

Archival summary:
1\1\gm4.localdomain\SP\MP2\BasisUnspecified\i228\xuedong\WedJul310:19:292019WedJul310:19:292019\0\\#,MP2,BasisUnspecified,\\0,1\Si\H,1,1.47164\H,1,1.48029,2,110.351\H,1,1.48325,2,109.909,3,118.624,0\O,1,1.65963,2,105.664,3,-121.048,0\H,5,0.958597,1,116.626,2,179.222,0\H,4,2.46423,1,77.7197,2,-58.8722,0\Si,7,1.4832,4,78.0025,1,-160.063,0\H,8,1.4717,7,109.898,4,-59.1964,0\H,8,1.48027,7,107.696,4,61.0644,0\O,8,1.65962,7,111.423,4,-175.97,0\H,11,0.958606,8,116.624,7,-61.7223,0\\HF=-732.410789\MP2=-733.190229\\@

 Total job time:  875.37s(wall), 2412.22s(cpu) 
 Wed Jul  3 10:19:29 2019

        *************************************************************
        *                                                           *
        *  Thank you very much for using Q-Chem.  Have a nice day.  *
        *                                                           *
        *************************************************************


