
Running Job 1 of 1 ../qm_inp/SiH3OH_SiH3OH.con3.080.qcinp
qchem ../qm_inp/SiH3OH_SiH3OH.con3.080.qcinp_38222.0 /scratch/xuedong/qchem38222/ 1
/home/qwang/software/qchem5.1.2/exe/qcprog.exe_s ../qm_inp/SiH3OH_SiH3OH.con3.080.qcinp_38222.0 /scratch/xuedong/qchem38222/
Check license passed

                  Welcome to Q-Chem
     A Quantum Leap Into The Future Of Chemistry


 Q-Chem 5.1, Q-Chem, Inc., Pleasanton, CA (2018)

 Yihan Shao,  Zhengting Gan,  E. Epifanovsky,  A. T. B. Gilbert,  M. Wormit,  
 J. Kussmann,  A. W. Lange,  A. Behn,  Jia Deng,  Xintian Feng,  D. Ghosh,  
 M. Goldey,  P. R. Horn,  L. D. Jacobson,  I. Kaliman,  T. Kus,  A. Landau,  
 Jie Liu,  E. I. Proynov,  R. M. Richard,  R. P. Steele,  E. J. Sundstrom,  
 H. L. Woodcock III,  P. M. Zimmerman,  D. Zuev,  B. Albrecht,  E. Alguire,  
 S. A. Baeppler,  D. Barton,  Z. Benda,  Y. A. Bernard,  E. J. Berquist,  
 K. B. Bravaya,  H. Burton,  D. Casanova,  Chun-Min Chang,  Yunqing Chen,  
 A. Chien,  K. D. Closser,  M. P. Coons,  S. Coriani,  S. Dasgupta,  
 A. L. Dempwolff,  M. Diedenhofen,  Hainam Do,  R. G. Edgar,  Po-Tung Fang,  
 S. Faraji,  S. Fatehi,  Qingguo Feng,  K. D. Fenk,  J. Fosso-Tande,  
 J. Gayvert,  Qinghui Ge,  A. Ghysels,  G. Gidofalvi,  J. Gomes,  
 J. Gonthier,  A. Gunina,  D. Hait,  M. W. D. Hanson-Heine,  
 P. H. P. Harbach,  A. W. Hauser,  J. E. Herr,  E. G. Hohenstein,  
 Z. C. Holden,  Kerwin Hui,  B. C. Huynh,  T.-C. Jagau,  Hyunjun Ji,  
 B. Kaduk,  K. Khistyaev,  Jaehoon Kim,  P. Klunzinger,  K. Koh,  
 D. Kosenkov,  L. Koulias,  T. Kowalczyk,  C. M. Krauter,  A. Kunitsa,  
 Ka Un Lao,  A. Laurent,  K. V. Lawler,  Joonho Lee,  D. Lefrancois,  
 S. Lehtola,  D. S. Levine,  Yi-Pei Li,  You-Sheng Lin,  Fenglai Liu,  
 E. Livshits,  A. Luenser,  P. Manohar,  E. Mansoor,  S. F. Manzer,  
 Shan-Ping Mao,  Yuezhi Mao,  N. Mardirossian,  A. V. Marenich,  
 T. Markovich,  L. A. Martinez-Martinez,  S. A. Maurer,  N. J. Mayhall,  
 S. C. McKenzie,  J.-M. Mewes,  A. F. Morrison,  J. W. Mullinax,  K. Nanda,  
 T. S. Nguyen-Beck,  R. Olivares-Amaya,  J. A. Parkhill,  T. M. Perrine,  
 F. Plasser,  P. Pokhilko,  S. Prager,  A. Prociuk,  E. Ramos,  D. R. Rehn,  
 F. Rob,  M. Schneider,  N. Sergueev,  S. M. Sharada,  S. Sharma,  
 D. W. Small,  T. Stauch,  T. Stein,  Yu-Chuan Su,  A. J. W. Thom,  
 A. Tkatchenko,  T. Tsuchimochi,  N. M. Tubman,  L. Vogt,  M. L. Vidal,  
 O. Vydrov,  M. A. Watson,  J. Wenzel,  M. de Wergifosse,  T. A. Wesolowski,  
 A. White,  J. Witte,  A. Yamada,  Jun Yang,  K. Yao,  S. Yeganeh,  
 S. R. Yost,  Zhi-Qiang You,  A. Zech,  Igor Ying Zhang,  Xing Zhang,  
 Yan Zhao,  Ying Zhu,  B. R. Brooks,  G. K. L. Chan,  C. J. Cramer,  
 M. S. Gordon,  W. J. Hehre,  A. Klamt,  M. W. Schmidt,  C. D. Sherrill,  
 D. G. Truhlar,  A. Aspuru-Guzik,  R. Baer,  A. T. Bell,  N. A. Besley,  
 Jeng-Da Chai,  A. E. DePrince, III,  R. A. DiStasio Jr.,  A. Dreuw,  
 B. D. Dunietz,  T. R. Furlani,  Chao-Ping Hsu,  Yousung Jung,  Jing Kong,  
 D. S. Lambrecht,  WanZhen Liang,  C. Ochsenfeld,  V. A. Rassolov,  
 L. V. Slipchenko,  J. E. Subotnik,  T. Van Voorhis,  J. M. Herbert,  
 A. I. Krylov,  P. M. W. Gill,  M. Head-Gordon

 Contributors to earlier versions of Q-Chem not listed above: 
 R. D. Adamson,  B. Austin,  J. Baker,  G. J. O. Beran,  K. Brandhorst,  
 S. T. Brown,  E. F. C. Byrd,  A. K. Chakraborty,  C.-L. Cheng,  
 Siu Hung Chien,  D. M. Chipman,  D. L. Crittenden,  H. Dachsel,  
 R. J. Doerksen,  A. D. Dutoi,  L. Fusti-Molnar,  W. A. Goddard III,  
 A. Golubeva-Zadorozhnaya,  S. R. Gwaltney,  G. Hawkins,  A. Heyden,  
 S. Hirata,  G. Kedziora,  F. J. Keil,  C. Kelley,  Jihan Kim,  R. A. King,  
 R. Z. Khaliullin,  P. P. Korambath,  W. Kurlancheek,  A. M. Lee,  M. S. Lee,  
 S. V. Levchenko,  Ching Yeh Lin,  D. Liotard,  R. C. Lochan,  I. Lotan,  
 P. E. Maslen,  N. Nair,  D. P. O'Neill,  D. Neuhauser,  E. Neuscamman,  
 C. M. Oana,  R. Olson,  B. Peters,  R. Peverati,  P. A. Pieniazek,  
 Y. M. Rhee,  J. Ritchie,  M. A. Rohrdanz,  E. Rosta,  N. J. Russ,  
 H. F. Schaefer III,  N. E. Schultz,  N. Shenvi,  A. C. Simmonett,  A. Sodt,  
 D. Stuck,  K. S. Thanthiriwatte,  V. Vanovschi,  Tao Wang,  A. Warshel,  
 C. F. Williams,  Q. Wu,  X. Xu,  W. Zhang

 Please cite Q-Chem as follows:
 Y. Shao et al., Mol. Phys. 113, 184-215 (2015)
 DOI: 10.1080/00268976.2014.952696

 Q-Chem 5.1.2 for Intel X86 EM64T Linux

 Parts of Q-Chem use Armadillo 8.300.2 (Tropical Shenanigans).
 http://arma.sourceforge.net/

 Q-Chem begins on Tue Jul  9 18:15:25 2019  

Host: 
0

     Scratch files written to /scratch/xuedong/qchem38222//
 Dec218 |scratch|qcdevops|jenkins|workspace|build_RNUM 6581   
Processing $rem in /home/qwang/software/qchem5.1.2/config/preferences.
 MEM_TOTAL  4000 
Core orbitals will be frozen
Input Ideriv = 1
Curr. Ideriv = -1
Max.  Ideriv = 1

Checking the input file for inconsistencies... 	...done.

--------------------------------------------------------------
User input:
--------------------------------------------------------------
$molecule
0 1
--
0 1
Si     2.376764240     0.137270735     0.463705189
H     2.850818527    -0.458840989     1.729658577
H     1.788718359     1.464378485     0.699128015
H     3.512521005     0.224749011    -0.476920657
O     1.131720522    -0.774155642    -0.187458262
H     1.331328116    -1.685531717    -0.412871535
--
0 1
Si    -2.119575882     0.140017741     0.026311232
H    -2.425912366    -1.229478781     0.506789793
H    -3.323785224     0.710760900    -0.606118599
H    -1.758576860     0.952835193     1.213257177
O    -0.932657885     0.150182991    -1.121204490
H    -0.068925114    -0.174431558    -0.827198314
$end

$rem
BASIS = aug-cc-pVTZ
JOB_TYPE  =  BSSE
METHOD  =  MP2
SCF_CONVERGENCE  =  7
SCF_MAX_CYCLES  =  200
$end

--------------------------------------------------------------
 ----------------------------------------------------------------
             Standard Nuclear Orientation (Angstroms)
    I     Atom           X                Y                Z
 ----------------------------------------------------------------
    1      Si     -2.2763087745     0.3090188379     0.1263514367
    2      H      -2.9337321263     1.0718702082    -0.9546513192
    3      H      -1.6659964090     1.2164032921     1.1095142483
    4      H      -3.2776621408    -0.5663169487     0.7693534248
    5      O      -0.9990994814    -0.5896475900    -0.4786120443
    6      H      -1.2077224466    -1.2496056583    -1.1435876016
    7      Si      2.2348891619     0.3372130560    -0.1117531136
    8      H       2.4174440518     0.1105956489    -1.5662429471
    9      H       3.5337231126     0.1772046267     0.5688811899
   10      H       1.7608755960     1.7319914019     0.0606930684
   11      O       1.2059178093    -0.7600111687     0.5686783322
   12      H       0.2983983162    -0.7421190159     0.2311331097
 ----------------------------------------------------------------
 Molecular Point Group                 C1    NOp =  1
 Largest Abelian Subgroup              C1    NOp =  1
 Nuclear Repulsion Energy =   225.4155340109 hartrees
 There are       26 alpha and       26 beta electrons
 Requested basis set is aug-cc-pVTZ
 There are 132 shells and 376 basis functions

 Total QAlloc Memory Limit   4000 MB
 Mega-Array Size       188 MB
 MEM_STATIC part       192 MB

                       Distance Matrix (Angstroms)
             Si(  1)   H (  2)   H (  3)   H (  4)   O (  5)   H (  6)
   H (  2)  1.477401
   H (  3)  1.470523  2.426690
   H (  4)  1.477286  2.402943  2.427193
   O (  5)  1.674767  2.594236  2.495740  2.598040
   H (  6)  2.276825  2.898975  3.371599  2.900151  0.959823
   Si(  7)  4.517565  5.288180  4.181074  5.655169  3.384130  3.928645
   H (  8)  4.993552  5.471122  5.005694  6.192532  3.653225  3.894948
   H (  9)  5.828351  6.704443  5.330038  6.854778  4.715059  5.239241
   H ( 10)  4.281124  4.848301  3.620678  5.583125  3.646686  4.376390
   O ( 11)  3.669384  4.776298  3.527975  4.492246  2.447027  2.999536
   H ( 12)  2.782982  3.891440  2.909675  3.620607  1.486770  2.101380
             Si(  7)   H (  8)   H (  9)   H ( 10)   O ( 11)
   H (  8)  1.483315
   H (  9)  1.475071  2.410243
   H ( 10)  1.483183  2.388918  2.412179
   O ( 11)  1.650960  2.604542  2.509393  2.603095
   H ( 12)  2.243329  2.906551  3.380319  2.879082  0.968426
 
 A cutoff of  1.0D-10 yielded   8195 shell pairs
 There are     66199 function pairs (     86077 Cartesian)
 
 -------------------------------------------------------
 OpenMP Integral Computing Module                       
 Release: version 1.0, May 2013, Q-Chem Inc. Pittsburgh 
 -------------------------------------------------------
 Integral Job Info:
 Integral job number is                      11
 Integral operator is                         1
 short-range coefficients                     0
 long-range coefficients              100000000
 Omega coefficients                           0
 if combine SR and LR in K                    0
 Integral screening is                        0
 Integral computing path is                   2
 max size of driver memory is            800000
 size of driver memory is                776718
 size of scratch memory is             29531563
 max col of scratch BK array              10000
 max len of scratch array in speh3          662
 max len of scratch index in speh4           32
 max int batch size is                      520
 min int batch size is                       52
 fixed nKL is                                31
 max L of basis functions is                  3
 order of int derivative is                   0
 number of shells is                        132
 number of basis is                         428
 number of cartesian basis is               428
 number of contracted shell pairs          8195
 number of primitive shell pairs          26140
 maxK2 (contraction) of shell pair          169
 max number of K2 of shell pair               1
 max number of CS2 of shell pair           1354
 max number of PS2 of shell pair           2418
 mem total for path MDJ                  731572
 -------------------------------------------------------
 Smallest overlap matrix eigenvalue = 2.43E-05

 Scale SEOQF with 1.000000e-01/1.000000e-01/1.000000e-01

 Standard Electronic Orientation quadrupole field applied
 Nucleus-field energy     =     0.0000000075 hartrees
 Guess MOs from converged MOs on fragments

-----------------------------------------------------------------
 SCF on fragment 1 out of 2
/home/qwang/software/qchem5.1.2/exe/qcprog.exe /scratch/xuedong/qchem38222/Frg1.input /scratch/xuedong/qchem38222/Frg1/ > /dev/null 
 SCF on fragment 2 out of 2
/home/qwang/software/qchem5.1.2/exe/qcprog.exe /scratch/xuedong/qchem38222/Frg2.input /scratch/xuedong/qchem38222/Frg2/ > /dev/null 
-----------------------------------------------------------------
 Done with SCF on isolated fragments
-----------------------------------------------------------------

 User-specified occupied guess orbitals will be used
 A restricted Hartree-Fock SCF calculation will be
 performed using Pulay DIIS extrapolation
 SCF converges when DIIS error is below 1.0E-07
 using 6 threads for integral computing
 -------------------------------------------------------
 OpenMP Integral computing Module                
 Release: version 1.0, May 2013, Q-Chem Inc. Pittsburgh 
 -------------------------------------------------------
 ---------------------------------------
  Cycle       Energy         DIIS Error
 ---------------------------------------
    1    -732.3923371592      8.89E-04
    2    -732.4101048216      2.19E-04
    3    -732.4117353500      7.17E-05
    4    -732.4118876049      3.32E-05
    5    -732.4119141042      9.65E-06
    6    -732.4119166236      1.50E-06
    7    -732.4119167175      3.26E-07
    8    -732.4119167220      1.34E-07
    9    -732.4119167224      6.73E-08 Convergence criterion met
 ---------------------------------------
 SCF time:  CPU 659.64 s  wall 110.00 s

-----------------------------------------------------------------
 SCF CP correction for fragment 1 out of 2
/home/qwang/software/qchem5.1.2/exe/qcprog.exe /scratch/xuedong/qchem38222/Frg1.input /scratch/xuedong/qchem38222/Frg1BSSE/ > /dev/null 
 SCF CP correction for fragment 2 out of 2
/home/qwang/software/qchem5.1.2/exe/qcprog.exe /scratch/xuedong/qchem38222/Frg2.input /scratch/xuedong/qchem38222/Frg2BSSE/ > /dev/null 
-----------------------------------------------------------------
 Done with counterpoise correction on fragments
-----------------------------------------------------------------

 SCF   energy in the final basis set = -732.41191672
 Total energy in the final basis set = -732.41191672
 
 Components of the MP2 correlation energy:
        aaaa  correlation energy =        -0.0833447946 au
        abab  correlation energy =        -0.6125862905 au
        bbbb  correlation energy =        -0.0833447946 au
        non-Brillouin singles    =        -0.0000000000 au

 Total  MP2   correlation energy =                    -0.77927588 au
        MP2         total energy =                  -733.19119260 au
 
 --------------------------------------------------------------
 
                    Orbital Energies (a.u.)
 --------------------------------------------------------------
 
 Alpha MOs
 -- Occupied --
-68.820 -68.773 -20.600 -20.512  -6.165  -6.117  -4.272  -4.272
 -4.272  -4.224  -4.224  -4.224  -1.393  -1.300  -0.793  -0.751
 -0.689  -0.641  -0.593  -0.560  -0.520  -0.519  -0.499  -0.486
 -0.449  -0.431
 -- Virtual --
  0.022   0.034   0.042   0.049   0.057   0.061   0.063   0.066
  0.073   0.079   0.080   0.086   0.101   0.107   0.119   0.131
  0.142   0.149   0.149   0.159   0.166   0.175   0.180   0.183
  0.188   0.198   0.210   0.214   0.217   0.231   0.235   0.240
  0.245   0.252   0.253   0.270   0.275   0.283   0.291   0.292
  0.303   0.307   0.317   0.321   0.332   0.335   0.342   0.348
  0.360   0.366   0.370   0.380   0.381   0.402   0.405   0.415
  0.423   0.428   0.438   0.441   0.450   0.456   0.466   0.469
  0.491   0.508   0.519   0.526   0.536   0.548   0.553   0.561
  0.578   0.581   0.590   0.599   0.603   0.611   0.613   0.627
  0.633   0.636   0.642   0.647   0.652   0.656   0.674   0.679
  0.681   0.690   0.702   0.706   0.709   0.728   0.743   0.769
  0.777   0.794   0.809   0.815   0.845   0.857   0.873   0.897
  0.909   0.927   0.949   0.949   0.959   0.969   0.973   0.977
  0.987   0.997   1.001   1.004   1.021   1.029   1.039   1.057
  1.070   1.074   1.092   1.102   1.108   1.108   1.122   1.128
  1.143   1.146   1.155   1.161   1.180   1.186   1.198   1.201
  1.211   1.224   1.240   1.245   1.248   1.262   1.271   1.281
  1.293   1.296   1.311   1.318   1.324   1.326   1.338   1.343
  1.346   1.361   1.374   1.378   1.380   1.393   1.403   1.404
  1.414   1.425   1.433   1.436   1.457   1.461   1.463   1.481
  1.486   1.516   1.531   1.538   1.548   1.555   1.575   1.588
  1.632   1.649   1.695   1.708   1.743   1.760   1.768   1.805
  1.829   1.849   1.861   1.885   1.913   1.931   1.934   1.950
  1.971   1.975   1.995   2.009   2.016   2.023   2.054   2.067
  2.069   2.105   2.116   2.139   2.154   2.176   2.204   2.227
  2.236   2.244   2.261   2.272   2.348   2.447   2.465   2.485
  2.492   2.544   2.560   2.581   2.652   2.669   2.701   2.754
  2.786   2.821   2.835   2.870   2.890   2.925   2.944   2.968
  3.028   3.085   3.104   3.180   3.191   3.285   3.302   3.339
  3.370   3.395   3.474   3.605   3.622   3.635   3.718   3.742
  3.778   3.804   3.963   3.976   4.000   4.009   4.017   4.030
  4.050   4.076   4.104   4.120   4.126   4.135   4.149   4.163
  4.166   4.191   4.193   4.203   4.212   4.219   4.261   4.289
  4.310   4.328   4.342   4.344   4.373   4.403   4.433   4.441
  4.453   4.483   4.493   4.524   4.535   4.546   4.557   4.573
  4.587   4.621   4.647   4.671   4.715   4.723   4.730   4.763
  4.781   4.799   4.814   4.828   4.837   4.851   4.853   4.925
  4.965   5.007   5.064   5.065   5.090   5.135   5.139   5.179
  5.233   5.363   5.431   5.522   5.639   5.807   5.858   6.005
  6.389   6.538   6.804   6.810   6.837   6.914   6.956   6.973
  7.019   7.073   7.231   7.278   7.303   7.328   7.359   7.370
  7.478   7.580   7.662   7.704   7.752   7.844   7.880   8.075
  8.280   8.689   9.224   9.397  15.920  16.339
 --------------------------------------------------------------
 
          Ground-State Mulliken Net Atomic Charges

     Atom                 Charge (a.u.)
  ----------------------------------------
      1 Si                    0.998104
      2 H                    -0.214913
      3 H                    -0.161904
      4 H                    -0.216111
      5 O                    -0.347998
      6 H                     0.069344
      7 Si                    1.197784
      8 H                    -0.269010
      9 H                    -0.311525
     10 H                    -0.262451
     11 O                    -0.600601
     12 H                     0.119280
  ----------------------------------------
  Sum of atomic charges =    -0.000000

 -----------------------------------------------------------------
                    Cartesian Multipole Moments
 -----------------------------------------------------------------
    Charge (ESU x 10^10)
                -0.0000
    Dipole Moment (Debye)
         X      -3.6009      Y      -0.0391      Z      -1.7641
       Tot       4.0100
    Quadrupole Moments (Debye-Ang)
        XX     -41.2957     XY       2.6751     YY     -42.2324
        XZ       0.1325     YZ       3.6833     ZZ     -42.4419
    Octopole Moments (Debye-Ang^2)
       XXX     -14.5044    XXY      -1.3380    XYY      -6.7537
       YYY     -13.7398    XXZ      -2.5811    XYZ      -3.2444
       YYZ      -5.2055    XZZ      -6.6759    YZZ      -5.7575
       ZZZ      -1.7908
    Hexadecapole Moments (Debye-Ang^3)
      XXXX   -1165.3567   XXXY      -4.0188   XXYY    -211.4168
      XYYY       2.5090   YYYY    -146.3691   XXXZ       1.5171
      XXYZ      11.6837   XYYZ       3.5080   YYYZ       7.7832
      XXZZ    -215.0277   XYZZ       6.6636   YYZZ     -39.4183
      XZZZ      16.0312   YZZZ       7.6079   ZZZZ    -114.4548
 -----------------------------------------------------------------

 ---------------------------------------------------------------------
 *                     Fragment's binding energy                     *
 ---------------------------------------------------------------------
    Fragment           E(TOTAL)         E(CP-CORR)           DE(BSSE)
 ---------------------------------------------------------------------
           1    -366.5939975002    -366.5953154205       0.0013179203
           2    -366.5937813148    -366.5946639326       0.0008826178
     Complex    -733.1911926021
 ---------------------------------------------------------------------
  DE, kJ/mol      -8.9630043688      -3.1854229835
 ---------------------------------------------------------------------

Archival summary:
1\1\gm4.localdomain\SP\MP2\BasisUnspecified\i228\xuedong\TueJul918:30:182019TueJul918:30:182019\0\\#,MP2,BasisUnspecified,\\0,1\Si\H,1,1.47507\H,1,1.48318,2,109.255\H,1,1.48331,2,109.118,3,117.004,0\O,1,1.65096,2,106.65,3,-121.483,0\H,5,0.968426,1,115.349,2,178.017,0\O,6,1.48677,5,170.433,1,17.598,0\H,7,0.959823,6,116.737,5,85.6787,0\Si,7,1.67477,6,123.238,5,-114.736,0\H,9,1.47052,7,104.839,6,20.2659,0\H,9,1.47729,7,110.867,6,-99.4078,0\H,9,1.4774,7,110.617,6,139.761,0\\HF=-732.411917\MP2=-733.191193\\@

 Total job time:  892.81s(wall), 2520.98s(cpu) 
 Tue Jul  9 18:30:18 2019

        *************************************************************
        *                                                           *
        *  Thank you very much for using Q-Chem.  Have a nice day.  *
        *                                                           *
        *************************************************************


