
Running Job 1 of 1 ../qm_inp/SiH3OH_SiH3OH.con1.090.qcinp
qchem ../qm_inp/SiH3OH_SiH3OH.con1.090.qcinp_36250.0 /scratch/xuedong/qchem36250/ 1
/home/qwang/software/qchem5.1.2/exe/qcprog.exe_s ../qm_inp/SiH3OH_SiH3OH.con1.090.qcinp_36250.0 /scratch/xuedong/qchem36250/
Check license passed

                  Welcome to Q-Chem
     A Quantum Leap Into The Future Of Chemistry


 Q-Chem 5.1, Q-Chem, Inc., Pleasanton, CA (2018)

 Yihan Shao,  Zhengting Gan,  E. Epifanovsky,  A. T. B. Gilbert,  M. Wormit,  
 J. Kussmann,  A. W. Lange,  A. Behn,  Jia Deng,  Xintian Feng,  D. Ghosh,  
 M. Goldey,  P. R. Horn,  L. D. Jacobson,  I. Kaliman,  T. Kus,  A. Landau,  
 Jie Liu,  E. I. Proynov,  R. M. Richard,  R. P. Steele,  E. J. Sundstrom,  
 H. L. Woodcock III,  P. M. Zimmerman,  D. Zuev,  B. Albrecht,  E. Alguire,  
 S. A. Baeppler,  D. Barton,  Z. Benda,  Y. A. Bernard,  E. J. Berquist,  
 K. B. Bravaya,  H. Burton,  D. Casanova,  Chun-Min Chang,  Yunqing Chen,  
 A. Chien,  K. D. Closser,  M. P. Coons,  S. Coriani,  S. Dasgupta,  
 A. L. Dempwolff,  M. Diedenhofen,  Hainam Do,  R. G. Edgar,  Po-Tung Fang,  
 S. Faraji,  S. Fatehi,  Qingguo Feng,  K. D. Fenk,  J. Fosso-Tande,  
 J. Gayvert,  Qinghui Ge,  A. Ghysels,  G. Gidofalvi,  J. Gomes,  
 J. Gonthier,  A. Gunina,  D. Hait,  M. W. D. Hanson-Heine,  
 P. H. P. Harbach,  A. W. Hauser,  J. E. Herr,  E. G. Hohenstein,  
 Z. C. Holden,  Kerwin Hui,  B. C. Huynh,  T.-C. Jagau,  Hyunjun Ji,  
 B. Kaduk,  K. Khistyaev,  Jaehoon Kim,  P. Klunzinger,  K. Koh,  
 D. Kosenkov,  L. Koulias,  T. Kowalczyk,  C. M. Krauter,  A. Kunitsa,  
 Ka Un Lao,  A. Laurent,  K. V. Lawler,  Joonho Lee,  D. Lefrancois,  
 S. Lehtola,  D. S. Levine,  Yi-Pei Li,  You-Sheng Lin,  Fenglai Liu,  
 E. Livshits,  A. Luenser,  P. Manohar,  E. Mansoor,  S. F. Manzer,  
 Shan-Ping Mao,  Yuezhi Mao,  N. Mardirossian,  A. V. Marenich,  
 T. Markovich,  L. A. Martinez-Martinez,  S. A. Maurer,  N. J. Mayhall,  
 S. C. McKenzie,  J.-M. Mewes,  A. F. Morrison,  J. W. Mullinax,  K. Nanda,  
 T. S. Nguyen-Beck,  R. Olivares-Amaya,  J. A. Parkhill,  T. M. Perrine,  
 F. Plasser,  P. Pokhilko,  S. Prager,  A. Prociuk,  E. Ramos,  D. R. Rehn,  
 F. Rob,  M. Schneider,  N. Sergueev,  S. M. Sharada,  S. Sharma,  
 D. W. Small,  T. Stauch,  T. Stein,  Yu-Chuan Su,  A. J. W. Thom,  
 A. Tkatchenko,  T. Tsuchimochi,  N. M. Tubman,  L. Vogt,  M. L. Vidal,  
 O. Vydrov,  M. A. Watson,  J. Wenzel,  M. de Wergifosse,  T. A. Wesolowski,  
 A. White,  J. Witte,  A. Yamada,  Jun Yang,  K. Yao,  S. Yeganeh,  
 S. R. Yost,  Zhi-Qiang You,  A. Zech,  Igor Ying Zhang,  Xing Zhang,  
 Yan Zhao,  Ying Zhu,  B. R. Brooks,  G. K. L. Chan,  C. J. Cramer,  
 M. S. Gordon,  W. J. Hehre,  A. Klamt,  M. W. Schmidt,  C. D. Sherrill,  
 D. G. Truhlar,  A. Aspuru-Guzik,  R. Baer,  A. T. Bell,  N. A. Besley,  
 Jeng-Da Chai,  A. E. DePrince, III,  R. A. DiStasio Jr.,  A. Dreuw,  
 B. D. Dunietz,  T. R. Furlani,  Chao-Ping Hsu,  Yousung Jung,  Jing Kong,  
 D. S. Lambrecht,  WanZhen Liang,  C. Ochsenfeld,  V. A. Rassolov,  
 L. V. Slipchenko,  J. E. Subotnik,  T. Van Voorhis,  J. M. Herbert,  
 A. I. Krylov,  P. M. W. Gill,  M. Head-Gordon

 Contributors to earlier versions of Q-Chem not listed above: 
 R. D. Adamson,  B. Austin,  J. Baker,  G. J. O. Beran,  K. Brandhorst,  
 S. T. Brown,  E. F. C. Byrd,  A. K. Chakraborty,  C.-L. Cheng,  
 Siu Hung Chien,  D. M. Chipman,  D. L. Crittenden,  H. Dachsel,  
 R. J. Doerksen,  A. D. Dutoi,  L. Fusti-Molnar,  W. A. Goddard III,  
 A. Golubeva-Zadorozhnaya,  S. R. Gwaltney,  G. Hawkins,  A. Heyden,  
 S. Hirata,  G. Kedziora,  F. J. Keil,  C. Kelley,  Jihan Kim,  R. A. King,  
 R. Z. Khaliullin,  P. P. Korambath,  W. Kurlancheek,  A. M. Lee,  M. S. Lee,  
 S. V. Levchenko,  Ching Yeh Lin,  D. Liotard,  R. C. Lochan,  I. Lotan,  
 P. E. Maslen,  N. Nair,  D. P. O'Neill,  D. Neuhauser,  E. Neuscamman,  
 C. M. Oana,  R. Olson,  B. Peters,  R. Peverati,  P. A. Pieniazek,  
 Y. M. Rhee,  J. Ritchie,  M. A. Rohrdanz,  E. Rosta,  N. J. Russ,  
 H. F. Schaefer III,  N. E. Schultz,  N. Shenvi,  A. C. Simmonett,  A. Sodt,  
 D. Stuck,  K. S. Thanthiriwatte,  V. Vanovschi,  Tao Wang,  A. Warshel,  
 C. F. Williams,  Q. Wu,  X. Xu,  W. Zhang

 Please cite Q-Chem as follows:
 Y. Shao et al., Mol. Phys. 113, 184-215 (2015)
 DOI: 10.1080/00268976.2014.952696

 Q-Chem 5.1.2 for Intel X86 EM64T Linux

 Parts of Q-Chem use Armadillo 8.300.2 (Tropical Shenanigans).
 http://arma.sourceforge.net/

 Q-Chem begins on Tue Jul  2 16:31:15 2019  

Host: 
0

     Scratch files written to /scratch/xuedong/qchem36250//
 Dec218 |scratch|qcdevops|jenkins|workspace|build_RNUM 6581   
Processing $rem in /home/qwang/software/qchem5.1.2/config/preferences.
 MEM_TOTAL  4000 
Core orbitals will be frozen
Input Ideriv = 1
Curr. Ideriv = -1
Max.  Ideriv = 1

Checking the input file for inconsistencies... 	...done.

--------------------------------------------------------------
User input:
--------------------------------------------------------------
$molecule
0 1
--
0 1
Si    -1.640187497     0.014756195    -0.076542663
H    -1.249232765     0.430015437    -1.441631202
H    -1.476279169    -1.439058300     0.106937392
H    -0.831012870     0.762824413     0.910049803
O    -3.267604738     0.280116950     0.176348953
H    -3.569749209     1.178548253     0.032578653
--
0 1
Si     2.274735425     0.132446496     0.003292434
H     2.651146710    -0.138987547     1.407633345
H     1.876532603     1.541075743    -0.156666615
H     3.439868113    -0.161972122    -0.858172141
O     0.943796804    -0.759434344    -0.449635953
H     0.974731984    -1.702937038    -0.277973523
$end

$rem
BASIS = aug-cc-pVTZ
JOB_TYPE  =  BSSE
METHOD  =  MP2
SCF_CONVERGENCE  =  8
SCF_MAX_CYCLES  =  200
$end

--------------------------------------------------------------
 ----------------------------------------------------------------
             Standard Nuclear Orientation (Angstroms)
    I     Atom           X                Y                Z
 ----------------------------------------------------------------
    1      Si     -1.4877115132    -0.0542968742    -0.0300144576
    2      H      -1.0860998309    -0.0964221666    -1.4532804469
    3      H      -1.2496393293    -1.3508038935     0.6306659799
    4      H      -0.7451608812     1.0271442745     0.6532409343
    5      O      -3.1329274852     0.1829123684     0.1108881919
    6      H      -3.4797897902     0.9620229551    -0.3270766718
    7      Si      2.4118329656     0.3161564397     0.0262290792
    8      H       2.7674230680     0.5523716954     1.4423128767
    9      H       1.9417564034     1.5640677451    -0.5983781091
   10      H       3.6122944942    -0.1792092257    -0.6807664604
   11      O       1.1430045691    -0.7533519489    -0.1087504617
   12      H       1.2208988612    -1.5816886578     0.3691753534
 ----------------------------------------------------------------
 Molecular Point Group                 C1    NOp =  1
 Largest Abelian Subgroup              C1    NOp =  1
 Nuclear Repulsion Energy =   220.8420551228 hartrees
 There are       26 alpha and       26 beta electrons
 Requested basis set is aug-cc-pVTZ
 There are 132 shells and 376 basis functions

 Total QAlloc Memory Limit   4000 MB
 Mega-Array Size       188 MB
 MEM_STATIC part       192 MB

                       Distance Matrix (Angstroms)
             Si(  1)   H (  2)   H (  3)   H (  4)   O (  5)   H (  6)
   H (  2)  1.479443
   H (  3)  1.474485  2.437837
   H (  4)  1.479099  2.411654  2.430976
   O (  5)  1.668190  2.591169  2.483793  2.590039
   H (  6)  2.255998  2.849279  3.352612  2.905763  0.958718
   Si(  7)  3.917505  3.820301  4.068228  3.296249  5.547007  5.937439
   H (  8)  4.543343  4.863644  4.518588  3.631293  6.059978  6.505861
   H (  9)  3.834500  3.557527  4.493555  3.012368  5.306888  5.461614
   H ( 10)  5.142873  4.762199  5.170192  4.714052  6.801167  7.192021
   O ( 11)  2.723150  2.684814  2.574574  2.704804  4.382742  4.935626
   H ( 12)  3.135099  3.293874  2.495044  3.279038  4.704926  5.389964
             Si(  7)   H (  8)   H (  9)   H ( 10)   O ( 11)
   H (  8)  1.479032
   H (  9)  1.472545  2.422741
   H ( 10)  1.478627  2.399267  2.415885
   O ( 11)  1.664930  2.597970  2.499635  2.598891
   H ( 12)  2.266661  2.845624  3.369210  2.964473  0.959491
 
 A cutoff of  1.0D-11 yielded   8162 shell pairs
 There are     65434 function pairs (     84674 Cartesian)
 
 -------------------------------------------------------
 OpenMP Integral Computing Module                       
 Release: version 1.0, May 2013, Q-Chem Inc. Pittsburgh 
 -------------------------------------------------------
 Integral Job Info:
 Integral job number is                      11
 Integral operator is                         1
 short-range coefficients                     0
 long-range coefficients              100000000
 Omega coefficients                           0
 if combine SR and LR in K                    0
 Integral screening is                        0
 Integral computing path is                   2
 max size of driver memory is            800000
 size of driver memory is                776718
 size of scratch memory is             29531563
 max col of scratch BK array              10000
 max len of scratch array in speh3          662
 max len of scratch index in speh4           32
 max int batch size is                      520
 min int batch size is                       52
 fixed nKL is                                31
 max L of basis functions is                  3
 order of int derivative is                   0
 number of shells is                        132
 number of basis is                         428
 number of cartesian basis is               428
 number of contracted shell pairs          8162
 number of primitive shell pairs          26711
 maxK2 (contraction) of shell pair          169
 max number of K2 of shell pair               1
 max number of CS2 of shell pair           1344
 max number of PS2 of shell pair           2496
 mem total for path MDJ                  719140
 -------------------------------------------------------
 Smallest overlap matrix eigenvalue = 2.07E-05

 Scale SEOQF with 1.000000e-01/1.000000e-01/1.000000e-01

 Standard Electronic Orientation quadrupole field applied
 Nucleus-field energy     =     0.0000000091 hartrees
 Guess MOs from converged MOs on fragments

-----------------------------------------------------------------
 SCF on fragment 1 out of 2
/home/qwang/software/qchem5.1.2/exe/qcprog.exe /scratch/xuedong/qchem36250/Frg1.input /scratch/xuedong/qchem36250/Frg1/ > /dev/null 
 SCF on fragment 2 out of 2
/home/qwang/software/qchem5.1.2/exe/qcprog.exe /scratch/xuedong/qchem36250/Frg2.input /scratch/xuedong/qchem36250/Frg2/ > /dev/null 
-----------------------------------------------------------------
 Done with SCF on isolated fragments
-----------------------------------------------------------------

 User-specified occupied guess orbitals will be used
 A restricted Hartree-Fock SCF calculation will be
 performed using Pulay DIIS extrapolation
 SCF converges when DIIS error is below 1.0E-08
 using 6 threads for integral computing
 -------------------------------------------------------
 OpenMP Integral computing Module                
 Release: version 1.0, May 2013, Q-Chem Inc. Pittsburgh 
 -------------------------------------------------------
 ---------------------------------------
  Cycle       Energy         DIIS Error
 ---------------------------------------
    1    -732.4099820383      3.59E-04
    2    -732.4141775517      9.36E-05
    3    -732.4145209440      4.37E-05
    4    -732.4145591891      1.34E-05
    5    -732.4145648932      2.36E-06
    6    -732.4145651192      5.86E-07
    7    -732.4145651325      1.76E-07
    8    -732.4145651335      7.93E-08
    9    -732.4145651337      1.81E-08
   10    -732.4145651337      4.84E-09 Convergence criterion met
 ---------------------------------------
 SCF time:  CPU 863.38 s  wall 143.96 s

-----------------------------------------------------------------
 SCF CP correction for fragment 1 out of 2
/home/qwang/software/qchem5.1.2/exe/qcprog.exe /scratch/xuedong/qchem36250/Frg1.input /scratch/xuedong/qchem36250/Frg1BSSE/ > /dev/null 
 SCF CP correction for fragment 2 out of 2
/home/qwang/software/qchem5.1.2/exe/qcprog.exe /scratch/xuedong/qchem36250/Frg2.input /scratch/xuedong/qchem36250/Frg2BSSE/ > /dev/null 
-----------------------------------------------------------------
 Done with counterpoise correction on fragments
-----------------------------------------------------------------

 SCF   energy in the final basis set = -732.41456513
 Total energy in the final basis set = -732.41456513
 
 Components of the MP2 correlation energy:
        aaaa  correlation energy =        -0.0827357243 au
        abab  correlation energy =        -0.6122066495 au
        bbbb  correlation energy =        -0.0827357243 au
        non-Brillouin singles    =        -0.0000000000 au

 Total  MP2   correlation energy =                    -0.77767810 au
        MP2         total energy =                  -733.19224323 au
 
 --------------------------------------------------------------
 
                    Orbital Energies (a.u.)
 --------------------------------------------------------------
 
 Alpha MOs
 -- Occupied --
-68.804 -68.782 -20.574 -20.546  -6.149  -6.126  -4.256  -4.256
 -4.255  -4.232  -4.232  -4.232  -1.357  -1.326  -0.770  -0.743
 -0.666  -0.638  -0.571  -0.568  -0.537  -0.526  -0.484  -0.470
 -0.460  -0.442
 -- Virtual --
  0.027   0.035   0.039   0.052   0.056   0.062   0.065   0.068
  0.076   0.078   0.083   0.088   0.098   0.109   0.125   0.135
  0.139   0.142   0.156   0.168   0.172   0.175   0.185   0.190
  0.196   0.204   0.210   0.219   0.229   0.234   0.239   0.251
  0.255   0.266   0.273   0.275   0.278   0.284   0.286   0.291
  0.292   0.310   0.319   0.321   0.327   0.330   0.353   0.353
  0.358   0.366   0.375   0.389   0.396   0.400   0.403   0.408
  0.423   0.432   0.437   0.439   0.443   0.449   0.458   0.467
  0.478   0.488   0.498   0.522   0.527   0.548   0.561   0.581
  0.585   0.591   0.598   0.602   0.617   0.624   0.632   0.634
  0.637   0.643   0.646   0.651   0.659   0.671   0.674   0.681
  0.686   0.696   0.704   0.719   0.725   0.744   0.759   0.779
  0.797   0.814   0.836   0.851   0.854   0.861   0.881   0.897
  0.900   0.906   0.921   0.943   0.957   0.964   0.974   0.980
  0.996   1.004   1.006   1.015   1.022   1.036   1.040   1.048
  1.058   1.066   1.071   1.094   1.100   1.116   1.122   1.129
  1.135   1.146   1.153   1.159   1.170   1.172   1.181   1.189
  1.204   1.212   1.216   1.224   1.235   1.237   1.269   1.272
  1.289   1.293   1.303   1.312   1.331   1.336   1.342   1.358
  1.363   1.372   1.381   1.388   1.392   1.396   1.402   1.415
  1.424   1.429   1.447   1.456   1.464   1.474   1.483   1.493
  1.499   1.507   1.518   1.530   1.544   1.559   1.576   1.577
  1.602   1.637   1.654   1.682   1.697   1.706   1.768   1.775
  1.798   1.824   1.861   1.870   1.885   1.922   1.950   1.956
  1.967   1.976   1.993   2.009   2.014   2.026   2.032   2.050
  2.054   2.069   2.088   2.109   2.148   2.176   2.189   2.217
  2.238   2.254   2.260   2.268   2.342   2.376   2.433   2.453
  2.464   2.487   2.523   2.542   2.574   2.603   2.619   2.660
  2.679   2.701   2.738   2.748   2.824   2.878   2.888   2.896
  2.909   2.929   3.066   3.077   3.122   3.133   3.166   3.202
  3.340   3.357   3.398   3.483   3.631   3.658   3.723   3.735
  3.763   3.819   3.916   3.937   3.989   4.003   4.030   4.068
  4.086   4.087   4.101   4.140   4.148   4.151   4.169   4.173
  4.188   4.197   4.204   4.215   4.225   4.239   4.276   4.295
  4.324   4.334   4.342   4.362   4.378   4.397   4.408   4.423
  4.441   4.451   4.474   4.504   4.531   4.548   4.556   4.576
  4.592   4.600   4.620   4.637   4.690   4.733   4.746   4.765
  4.788   4.807   4.823   4.833   4.837   4.851   4.889   4.911
  4.927   4.947   5.056   5.081   5.115   5.135   5.137   5.170
  5.187   5.214   5.431   5.463   5.477   5.498   5.698   5.758
  6.391   6.473   6.741   6.779   6.783   6.823   6.848   6.865
  6.884   6.922   7.233   7.253   7.289   7.302   7.335   7.352
  7.361   7.392   7.401   7.424   7.606   7.631   7.750   7.806
  8.158   8.177   9.215   9.275  15.022  15.200
 --------------------------------------------------------------
 
          Ground-State Mulliken Net Atomic Charges

     Atom                 Charge (a.u.)
  ----------------------------------------
      1 Si                    1.187865
      2 H                    -0.183543
      3 H                    -0.187261
      4 H                    -0.217810
      5 O                    -0.658548
      6 H                     0.102942
      7 Si                    1.045409
      8 H                    -0.204592
      9 H                    -0.177822
     10 H                    -0.257545
     11 O                    -0.534846
     12 H                     0.085751
  ----------------------------------------
  Sum of atomic charges =     0.000000

 -----------------------------------------------------------------
                    Cartesian Multipole Moments
 -----------------------------------------------------------------
    Charge (ESU x 10^10)
                 0.0000
    Dipole Moment (Debye)
         X       1.9258      Y       0.2752      Z      -0.0305
       Tot       1.9456
    Quadrupole Moments (Debye-Ang)
        XX     -43.6148     XY      -5.8935     YY     -38.1102
        XZ       4.1238     YZ      -2.4952     ZZ     -43.3161
    Octopole Moments (Debye-Ang^2)
       XXX      -0.2918    XXY      15.7055    XYY      -5.1946
       YYY      -8.9878    XXZ      -9.9463    XYZ       0.3320
       YYZ       1.0188    XZZ      -5.2650    YZZ      -1.9293
       ZZZ       0.0702
    Hexadecapole Moments (Debye-Ang^3)
      XXXX   -1261.3732   XXXY     -69.3162   XXYY    -191.9362
      XYYY     -30.9467   YYYY    -113.8946   XXXZ      45.4364
      XXYZ     -14.8215   XYYZ       8.9802   YYYZ      -4.9947
      XXZZ    -224.6284   XYZZ      -7.3238   YYZZ     -36.5482
      XZZZ      -5.8399   YZZZ      -1.9743   ZZZZ     -95.7734
 -----------------------------------------------------------------

 ---------------------------------------------------------------------
 *                     Fragment's binding energy                     *
 ---------------------------------------------------------------------
    Fragment           E(TOTAL)         E(CP-CORR)           DE(BSSE)
 ---------------------------------------------------------------------
           1    -366.5939346825    -366.5945540883       0.0006194059
           2    -366.5940585477    -366.5947623657       0.0007038180
     Complex    -733.1922432317
 ---------------------------------------------------------------------
  DE, kJ/mol     -11.1585115646      -7.6843459072
 ---------------------------------------------------------------------

Archival summary:
1\1\gm4.localdomain\SP\MP2\BasisUnspecified\i228\xuedong\TueJul216:48:542019TueJul216:48:542019\0\\#,MP2,BasisUnspecified,\\0,1\Si\H,1,1.47449\H,1,1.4791,2,110.784\H,1,1.47944,2,111.235,3,121.665,0\O,1,1.66819,2,104.266,3,-119.021,0\H,5,0.958718,1,115.708,2,-175.706,0\H,2,2.49504,1,101.203,3,-60.6175,0\O,7,0.959491,2,83.7959,1,-2.31823,0\Si,8,1.66493,7,116.892,2,146.057,0\H,9,1.47254,8,105.469,7,-170.666,0\H,9,1.47863,8,111.392,7,70.1516,0\H,9,1.47903,8,111.311,7,-50.9957,0\\HF=-732.414565\MP2=-733.192243\\@

 Total job time:  1058.95s(wall), 2858.89s(cpu) 
 Tue Jul  2 16:48:54 2019

        *************************************************************
        *                                                           *
        *  Thank you very much for using Q-Chem.  Have a nice day.  *
        *                                                           *
        *************************************************************


