
Running Job 1 of 1 ../qm_inp/SiH3OH_water.con1.110.qcinp
qchem ../qm_inp/SiH3OH_water.con1.110.qcinp_15731.0 /scratch/xuedong/qchem15731/ 1
/home/qwang/software/qchem5.1.2/exe/qcprog.exe_s ../qm_inp/SiH3OH_water.con1.110.qcinp_15731.0 /scratch/xuedong/qchem15731/
Check license passed

                  Welcome to Q-Chem
     A Quantum Leap Into The Future Of Chemistry


 Q-Chem 5.1, Q-Chem, Inc., Pleasanton, CA (2018)

 Yihan Shao,  Zhengting Gan,  E. Epifanovsky,  A. T. B. Gilbert,  M. Wormit,  
 J. Kussmann,  A. W. Lange,  A. Behn,  Jia Deng,  Xintian Feng,  D. Ghosh,  
 M. Goldey,  P. R. Horn,  L. D. Jacobson,  I. Kaliman,  T. Kus,  A. Landau,  
 Jie Liu,  E. I. Proynov,  R. M. Richard,  R. P. Steele,  E. J. Sundstrom,  
 H. L. Woodcock III,  P. M. Zimmerman,  D. Zuev,  B. Albrecht,  E. Alguire,  
 S. A. Baeppler,  D. Barton,  Z. Benda,  Y. A. Bernard,  E. J. Berquist,  
 K. B. Bravaya,  H. Burton,  D. Casanova,  Chun-Min Chang,  Yunqing Chen,  
 A. Chien,  K. D. Closser,  M. P. Coons,  S. Coriani,  S. Dasgupta,  
 A. L. Dempwolff,  M. Diedenhofen,  Hainam Do,  R. G. Edgar,  Po-Tung Fang,  
 S. Faraji,  S. Fatehi,  Qingguo Feng,  K. D. Fenk,  J. Fosso-Tande,  
 J. Gayvert,  Qinghui Ge,  A. Ghysels,  G. Gidofalvi,  J. Gomes,  
 J. Gonthier,  A. Gunina,  D. Hait,  M. W. D. Hanson-Heine,  
 P. H. P. Harbach,  A. W. Hauser,  J. E. Herr,  E. G. Hohenstein,  
 Z. C. Holden,  Kerwin Hui,  B. C. Huynh,  T.-C. Jagau,  Hyunjun Ji,  
 B. Kaduk,  K. Khistyaev,  Jaehoon Kim,  P. Klunzinger,  K. Koh,  
 D. Kosenkov,  L. Koulias,  T. Kowalczyk,  C. M. Krauter,  A. Kunitsa,  
 Ka Un Lao,  A. Laurent,  K. V. Lawler,  Joonho Lee,  D. Lefrancois,  
 S. Lehtola,  D. S. Levine,  Yi-Pei Li,  You-Sheng Lin,  Fenglai Liu,  
 E. Livshits,  A. Luenser,  P. Manohar,  E. Mansoor,  S. F. Manzer,  
 Shan-Ping Mao,  Yuezhi Mao,  N. Mardirossian,  A. V. Marenich,  
 T. Markovich,  L. A. Martinez-Martinez,  S. A. Maurer,  N. J. Mayhall,  
 S. C. McKenzie,  J.-M. Mewes,  A. F. Morrison,  J. W. Mullinax,  K. Nanda,  
 T. S. Nguyen-Beck,  R. Olivares-Amaya,  J. A. Parkhill,  T. M. Perrine,  
 F. Plasser,  P. Pokhilko,  S. Prager,  A. Prociuk,  E. Ramos,  D. R. Rehn,  
 F. Rob,  M. Schneider,  N. Sergueev,  S. M. Sharada,  S. Sharma,  
 D. W. Small,  T. Stauch,  T. Stein,  Yu-Chuan Su,  A. J. W. Thom,  
 A. Tkatchenko,  T. Tsuchimochi,  N. M. Tubman,  L. Vogt,  M. L. Vidal,  
 O. Vydrov,  M. A. Watson,  J. Wenzel,  M. de Wergifosse,  T. A. Wesolowski,  
 A. White,  J. Witte,  A. Yamada,  Jun Yang,  K. Yao,  S. Yeganeh,  
 S. R. Yost,  Zhi-Qiang You,  A. Zech,  Igor Ying Zhang,  Xing Zhang,  
 Yan Zhao,  Ying Zhu,  B. R. Brooks,  G. K. L. Chan,  C. J. Cramer,  
 M. S. Gordon,  W. J. Hehre,  A. Klamt,  M. W. Schmidt,  C. D. Sherrill,  
 D. G. Truhlar,  A. Aspuru-Guzik,  R. Baer,  A. T. Bell,  N. A. Besley,  
 Jeng-Da Chai,  A. E. DePrince, III,  R. A. DiStasio Jr.,  A. Dreuw,  
 B. D. Dunietz,  T. R. Furlani,  Chao-Ping Hsu,  Yousung Jung,  Jing Kong,  
 D. S. Lambrecht,  WanZhen Liang,  C. Ochsenfeld,  V. A. Rassolov,  
 L. V. Slipchenko,  J. E. Subotnik,  T. Van Voorhis,  J. M. Herbert,  
 A. I. Krylov,  P. M. W. Gill,  M. Head-Gordon

 Contributors to earlier versions of Q-Chem not listed above: 
 R. D. Adamson,  B. Austin,  J. Baker,  G. J. O. Beran,  K. Brandhorst,  
 S. T. Brown,  E. F. C. Byrd,  A. K. Chakraborty,  C.-L. Cheng,  
 Siu Hung Chien,  D. M. Chipman,  D. L. Crittenden,  H. Dachsel,  
 R. J. Doerksen,  A. D. Dutoi,  L. Fusti-Molnar,  W. A. Goddard III,  
 A. Golubeva-Zadorozhnaya,  S. R. Gwaltney,  G. Hawkins,  A. Heyden,  
 S. Hirata,  G. Kedziora,  F. J. Keil,  C. Kelley,  Jihan Kim,  R. A. King,  
 R. Z. Khaliullin,  P. P. Korambath,  W. Kurlancheek,  A. M. Lee,  M. S. Lee,  
 S. V. Levchenko,  Ching Yeh Lin,  D. Liotard,  R. C. Lochan,  I. Lotan,  
 P. E. Maslen,  N. Nair,  D. P. O'Neill,  D. Neuhauser,  E. Neuscamman,  
 C. M. Oana,  R. Olson,  B. Peters,  R. Peverati,  P. A. Pieniazek,  
 Y. M. Rhee,  J. Ritchie,  M. A. Rohrdanz,  E. Rosta,  N. J. Russ,  
 H. F. Schaefer III,  N. E. Schultz,  N. Shenvi,  A. C. Simmonett,  A. Sodt,  
 D. Stuck,  K. S. Thanthiriwatte,  V. Vanovschi,  Tao Wang,  A. Warshel,  
 C. F. Williams,  Q. Wu,  X. Xu,  W. Zhang

 Please cite Q-Chem as follows:
 Y. Shao et al., Mol. Phys. 113, 184-215 (2015)
 DOI: 10.1080/00268976.2014.952696

 Q-Chem 5.1.2 for Intel X86 EM64T Linux

 Parts of Q-Chem use Armadillo 8.300.2 (Tropical Shenanigans).
 http://arma.sourceforge.net/

 Q-Chem begins on Wed Jul 10 15:22:00 2019  

Host: 
0

     Scratch files written to /scratch/xuedong/qchem15731//
 Dec218 |scratch|qcdevops|jenkins|workspace|build_RNUM 6581   
Processing $rem in /home/qwang/software/qchem5.1.2/config/preferences.
 MEM_TOTAL  4000 
Core orbitals will be frozen
Input Ideriv = 1
Curr. Ideriv = -1
Max.  Ideriv = 1

Checking the input file for inconsistencies... 	...done.

--------------------------------------------------------------
User input:
--------------------------------------------------------------
$molecule
0 1
--
0 1
O     2.211620313     0.478466174    -0.303678005
H     2.668387860     1.019102152     0.345793294
H     2.839786115    -0.215073049    -0.521895639
--
0 1
Si    -1.776954081    -0.015116159     0.019104085
H    -1.882705004     1.462165478     0.092174936
H    -2.901256864    -0.615919773     0.762403222
H    -1.885647267    -0.395894987    -1.410335667
O    -0.394120685    -0.577603274     0.721182122
H     0.438050084    -0.227827190     0.365667923
$end

$rem
BASIS = aug-cc-pVTZ
JOB_TYPE  =  BSSE
METHOD  =  MP2
SCF_CONVERGENCE  =  7
SCF_MAX_CYCLES  =  200
$end

--------------------------------------------------------------
 ----------------------------------------------------------------
             Standard Nuclear Orientation (Angstroms)
    I     Atom           X                Y                Z
 ----------------------------------------------------------------
    1      O      -2.5796127020     0.2707577255     0.0179250742
    2      H      -3.0497377685     0.1051328238    -0.8032251159
    3      H      -3.1346209781    -0.1247352580     0.6952425610
    4      Si      1.4521697279     0.2377203747     0.0046410621
    5      H       1.3859430371     1.1985919976    -1.1228443665
    6      H       2.6905960604    -0.5562582252    -0.1111757737
    7      H       1.5024916306     1.0295546838     1.2578652488
    8      O       0.2003538485    -0.8365505788    -0.0161543258
    9      H      -0.6909773451    -0.4540284413     0.0049965891
 ----------------------------------------------------------------
 Molecular Point Group                 C1    NOp =  1
 Largest Abelian Subgroup              C1    NOp =  1
 Nuclear Repulsion Energy =   111.4266192620 hartrees
 There are       18 alpha and       18 beta electrons
 Requested basis set is aug-cc-pVTZ
 There are 98 shells and 280 basis functions

 Total QAlloc Memory Limit   4000 MB
 Mega-Array Size       188 MB
 MEM_STATIC part       192 MB

                       Distance Matrix (Angstroms)
             O (  1)   H (  2)   H (  3)   Si(  4)   H (  5)   H (  6)
   H (  2)  0.960592
   H (  3)  0.960837  1.518371
   Si(  4)  4.031940  4.575740  4.652629
   H (  5)  4.229405  4.579637  5.048974  1.482863
   H (  6)  5.336265  5.819605  5.896582  1.475641  2.409376
   H (  7)  4.333221  5.081874  4.811626  1.483275  2.389547  2.408458
   O (  8)  2.992575  3.474096  3.483507  1.649707  2.602343  2.507768
   H (  9)  2.022974  2.555315  2.560521  2.252020  2.883882  3.385112
             H (  7)   O (  8)
   O (  8)  2.607880
   H (  9)  2.929506  0.970176
 
 A cutoff of  1.0D-10 yielded   4552 shell pairs
 There are     36960 function pairs (     48088 Cartesian)
 
 -------------------------------------------------------
 OpenMP Integral Computing Module                       
 Release: version 1.0, May 2013, Q-Chem Inc. Pittsburgh 
 -------------------------------------------------------
 Integral Job Info:
 Integral job number is                      11
 Integral operator is                         1
 short-range coefficients                     0
 long-range coefficients              100000000
 Omega coefficients                           0
 if combine SR and LR in K                    0
 Integral screening is                        0
 Integral computing path is                   2
 max size of driver memory is            800000
 size of driver memory is                776718
 size of scratch memory is             29531563
 max col of scratch BK array              10000
 max len of scratch array in speh3          662
 max len of scratch index in speh4           32
 max int batch size is                      520
 min int batch size is                       52
 fixed nKL is                                31
 max L of basis functions is                  3
 order of int derivative is                   0
 number of shells is                         98
 number of basis is                         319
 number of cartesian basis is               319
 number of contracted shell pairs          4552
 number of primitive shell pairs          13670
 maxK2 (contraction) of shell pair          169
 max number of K2 of shell pair               1
 max number of CS2 of shell pair            757
 max number of PS2 of shell pair           1014
 mem total for path MDJ                  634188
 -------------------------------------------------------
 Smallest overlap matrix eigenvalue = 2.71E-05

 Scale SEOQF with 1.000000e-01/1.000000e-01/1.000000e-01

 Standard Electronic Orientation quadrupole field applied
 Nucleus-field energy     =     0.0000000044 hartrees
 Guess MOs from converged MOs on fragments

-----------------------------------------------------------------
 SCF on fragment 1 out of 2
/home/qwang/software/qchem5.1.2/exe/qcprog.exe /scratch/xuedong/qchem15731/Frg1.input /scratch/xuedong/qchem15731/Frg1/ > /dev/null 
 SCF on fragment 2 out of 2
/home/qwang/software/qchem5.1.2/exe/qcprog.exe /scratch/xuedong/qchem15731/Frg2.input /scratch/xuedong/qchem15731/Frg2/ > /dev/null 
-----------------------------------------------------------------
 Done with SCF on isolated fragments
-----------------------------------------------------------------

 User-specified occupied guess orbitals will be used
 A restricted Hartree-Fock SCF calculation will be
 performed using Pulay DIIS extrapolation
 SCF converges when DIIS error is below 1.0E-07
 using 6 threads for integral computing
 -------------------------------------------------------
 OpenMP Integral computing Module                
 Release: version 1.0, May 2013, Q-Chem Inc. Pittsburgh 
 -------------------------------------------------------
 ---------------------------------------
  Cycle       Energy         DIIS Error
 ---------------------------------------
    1    -442.2728542496      4.44E-04
    2    -442.2758924342      1.10E-04
    3    -442.2761594574      3.50E-05
    4    -442.2761831132      1.42E-05
    5    -442.2761863274      4.91E-06
    6    -442.2761866627      7.69E-07
    7    -442.2761866769      1.46E-07
    8    -442.2761866773      5.41E-08 Convergence criterion met
 ---------------------------------------
 SCF time:  CPU 170.92 s  wall 28.53 s

-----------------------------------------------------------------
 SCF CP correction for fragment 1 out of 2
/home/qwang/software/qchem5.1.2/exe/qcprog.exe /scratch/xuedong/qchem15731/Frg1.input /scratch/xuedong/qchem15731/Frg1BSSE/ > /dev/null 
 SCF CP correction for fragment 2 out of 2
/home/qwang/software/qchem5.1.2/exe/qcprog.exe /scratch/xuedong/qchem15731/Frg2.input /scratch/xuedong/qchem15731/Frg2BSSE/ > /dev/null 
-----------------------------------------------------------------
 Done with counterpoise correction on fragments
-----------------------------------------------------------------

 SCF   energy in the final basis set = -442.27618668
 Total energy in the final basis set = -442.27618668
 
 Components of the MP2 correlation energy:
        aaaa  correlation energy =        -0.0738885465 au
        abab  correlation energy =        -0.5090017787 au
        bbbb  correlation energy =        -0.0738885465 au
        non-Brillouin singles    =        -0.0000000000 au

 Total  MP2   correlation energy =                    -0.65677887 au
        MP2         total energy =                  -442.93296555 au
 
 --------------------------------------------------------------
 
                    Orbital Energies (a.u.)
 --------------------------------------------------------------
 
 Alpha MOs
 -- Occupied --
-68.781 -20.597 -20.539  -6.125  -4.232  -4.232  -4.232  -1.383
 -1.320  -0.746  -0.740  -0.644  -0.609  -0.541  -0.537  -0.534
 -0.459  -0.441
 -- Virtual --
  0.020   0.042   0.043   0.060   0.067   0.069   0.073   0.077
  0.086   0.137   0.145   0.150   0.155   0.159   0.163   0.173
  0.189   0.206   0.209   0.214   0.220   0.232   0.239   0.252
  0.253   0.267   0.276   0.287   0.292   0.312   0.329   0.340
  0.342   0.348   0.355   0.380   0.384   0.389   0.408   0.413
  0.420   0.432   0.435   0.440   0.457   0.462   0.478   0.524
  0.548   0.555   0.578   0.595   0.601   0.613   0.621   0.628
  0.638   0.652   0.652   0.672   0.676   0.681   0.683   0.715
  0.736   0.742   0.768   0.791   0.814   0.839   0.859   0.863
  0.868   0.890   0.900   0.935   0.937   0.956   0.966   0.973
  0.979   0.988   0.993   1.014   1.031   1.035   1.041   1.056
  1.073   1.080   1.093   1.125   1.132   1.154   1.173   1.176
  1.184   1.197   1.204   1.210   1.224   1.238   1.253   1.266
  1.272   1.294   1.305   1.321   1.334   1.348   1.361   1.369
  1.383   1.392   1.431   1.435   1.444   1.484   1.485   1.498
  1.536   1.560   1.572   1.575   1.598   1.638   1.674   1.726
  1.748   1.758   1.817   1.840   1.844   1.871   1.950   1.964
  1.982   2.004   2.020   2.032   2.067   2.084   2.124   2.155
  2.214   2.239   2.250   2.292   2.338   2.381   2.435   2.458
  2.467   2.498   2.547   2.558   2.565   2.653   2.672   2.680
  2.705   2.727   2.757   2.831   2.847   2.881   2.899   2.925
  2.974   2.979   3.117   3.147   3.188   3.327   3.420   3.601
  3.674   3.737   3.763   3.794   3.995   4.003   4.007   4.044
  4.080   4.118   4.122   4.143   4.151   4.185   4.203   4.228
  4.238   4.240   4.277   4.298   4.340   4.359   4.380   4.400
  4.444   4.449   4.477   4.509   4.520   4.542   4.553   4.584
  4.613   4.661   4.678   4.730   4.762   4.773   4.822   4.833
  4.878   4.891   4.949   5.061   5.111   5.142   5.157   5.176
  5.227   5.256   5.319   5.423   5.508   5.590   5.693   5.774
  6.314   6.423   6.514   6.771   6.777   6.803   6.872   6.899
  6.946   7.146   7.215   7.287   7.291   7.308   7.328   7.342
  7.366   7.397   7.405   7.562   7.594   7.733   7.820   7.902
  7.920   8.209   8.856   9.092  15.274  16.483
 --------------------------------------------------------------
 
          Ground-State Mulliken Net Atomic Charges

     Atom                 Charge (a.u.)
  ----------------------------------------
      1 O                    -0.454059
      2 H                     0.221327
      3 H                     0.221497
      4 Si                    1.192516
      5 H                    -0.289039
      6 H                    -0.235880
      7 H                    -0.284701
      8 O                    -0.549183
      9 H                     0.177523
  ----------------------------------------
  Sum of atomic charges =    -0.000000

 -----------------------------------------------------------------
                    Cartesian Multipole Moments
 -----------------------------------------------------------------
    Charge (ESU x 10^10)
                -0.0000
    Dipole Moment (Debye)
         X      -3.3432      Y       0.2557      Z      -0.1826
       Tot       3.3580
    Quadrupole Moments (Debye-Ang)
        XX     -15.9498     XY       2.9559     YY     -31.4259
        XZ       0.5904     YZ      -0.5230     ZZ     -26.3699
    Octopole Moments (Debye-Ang^2)
       XXX     -66.6730    XXY      -8.8599    XYY      -5.4209
       YYY      -2.8394    XXZ      -1.4039    XYZ       1.2957
       YYZ       0.1836    XZZ     -15.1730    YZZ      -2.9399
       ZZZ      -0.8919
    Hexadecapole Moments (Debye-Ang^3)
      XXXX    -386.7261   XXXY      25.0933   XXYY    -109.7760
      XYYY      -3.3833   YYYY     -87.9592   XXXZ       3.5893
      XXYZ      -4.8759   XYYZ       0.3606   YYYZ      -0.0977
      XXZZ     -76.9360   XYZZ      -4.1829   YYZZ     -24.6928
      XZZZ       0.7198   YZZZ      -0.6984   ZZZZ     -53.2138
 -----------------------------------------------------------------

 ---------------------------------------------------------------------
 *                     Fragment's binding energy                     *
 ---------------------------------------------------------------------
    Fragment           E(TOTAL)         E(CP-CORR)           DE(BSSE)
 ---------------------------------------------------------------------
           1     -76.3289897282     -76.3294223459       0.0004326177
           2    -366.5937473660    -366.5941560001       0.0004086341
     Complex    -442.9329655490
 ---------------------------------------------------------------------
  DE, kJ/mol     -26.8551267301     -24.6463938417
 ---------------------------------------------------------------------

Archival summary:
1\1\gm4.localdomain\SP\MP2\BasisUnspecified\i126\xuedong\WedJul1015:25:422019WedJul1015:25:422019\0\\#,MP2,BasisUnspecified,\\0,1\Si\H,1,1.47564\H,1,1.48286,2,109.054\H,1,1.48328,2,108.97,3,-116.88,0\O,1,1.64971,2,106.587,3,121.378,0\H,5,0.970176,1,116.111,2,-176.832,0\O,6,2.02297,5,177.6,1,159.849,0\H,7,0.960592,6,112.934,5,-46.9815,0\H,7,0.960837,6,113.347,5,71.5106,0\\HF=-442.276187\MP2=-442.932966\\@

 Total job time:  222.22s(wall), 458.36s(cpu) 
 Wed Jul 10 15:25:42 2019

        *************************************************************
        *                                                           *
        *  Thank you very much for using Q-Chem.  Have a nice day.  *
        *                                                           *
        *************************************************************


