
Running Job 1 of 1 ../qm_inp/SiH3OH_water.con2.110.qcinp
qchem ../qm_inp/SiH3OH_water.con2.110.qcinp_16560.0 /scratch/xuedong/qchem16560/ 1
/home/qwang/software/qchem5.1.2/exe/qcprog.exe_s ../qm_inp/SiH3OH_water.con2.110.qcinp_16560.0 /scratch/xuedong/qchem16560/
Check license passed

                  Welcome to Q-Chem
     A Quantum Leap Into The Future Of Chemistry


 Q-Chem 5.1, Q-Chem, Inc., Pleasanton, CA (2018)

 Yihan Shao,  Zhengting Gan,  E. Epifanovsky,  A. T. B. Gilbert,  M. Wormit,  
 J. Kussmann,  A. W. Lange,  A. Behn,  Jia Deng,  Xintian Feng,  D. Ghosh,  
 M. Goldey,  P. R. Horn,  L. D. Jacobson,  I. Kaliman,  T. Kus,  A. Landau,  
 Jie Liu,  E. I. Proynov,  R. M. Richard,  R. P. Steele,  E. J. Sundstrom,  
 H. L. Woodcock III,  P. M. Zimmerman,  D. Zuev,  B. Albrecht,  E. Alguire,  
 S. A. Baeppler,  D. Barton,  Z. Benda,  Y. A. Bernard,  E. J. Berquist,  
 K. B. Bravaya,  H. Burton,  D. Casanova,  Chun-Min Chang,  Yunqing Chen,  
 A. Chien,  K. D. Closser,  M. P. Coons,  S. Coriani,  S. Dasgupta,  
 A. L. Dempwolff,  M. Diedenhofen,  Hainam Do,  R. G. Edgar,  Po-Tung Fang,  
 S. Faraji,  S. Fatehi,  Qingguo Feng,  K. D. Fenk,  J. Fosso-Tande,  
 J. Gayvert,  Qinghui Ge,  A. Ghysels,  G. Gidofalvi,  J. Gomes,  
 J. Gonthier,  A. Gunina,  D. Hait,  M. W. D. Hanson-Heine,  
 P. H. P. Harbach,  A. W. Hauser,  J. E. Herr,  E. G. Hohenstein,  
 Z. C. Holden,  Kerwin Hui,  B. C. Huynh,  T.-C. Jagau,  Hyunjun Ji,  
 B. Kaduk,  K. Khistyaev,  Jaehoon Kim,  P. Klunzinger,  K. Koh,  
 D. Kosenkov,  L. Koulias,  T. Kowalczyk,  C. M. Krauter,  A. Kunitsa,  
 Ka Un Lao,  A. Laurent,  K. V. Lawler,  Joonho Lee,  D. Lefrancois,  
 S. Lehtola,  D. S. Levine,  Yi-Pei Li,  You-Sheng Lin,  Fenglai Liu,  
 E. Livshits,  A. Luenser,  P. Manohar,  E. Mansoor,  S. F. Manzer,  
 Shan-Ping Mao,  Yuezhi Mao,  N. Mardirossian,  A. V. Marenich,  
 T. Markovich,  L. A. Martinez-Martinez,  S. A. Maurer,  N. J. Mayhall,  
 S. C. McKenzie,  J.-M. Mewes,  A. F. Morrison,  J. W. Mullinax,  K. Nanda,  
 T. S. Nguyen-Beck,  R. Olivares-Amaya,  J. A. Parkhill,  T. M. Perrine,  
 F. Plasser,  P. Pokhilko,  S. Prager,  A. Prociuk,  E. Ramos,  D. R. Rehn,  
 F. Rob,  M. Schneider,  N. Sergueev,  S. M. Sharada,  S. Sharma,  
 D. W. Small,  T. Stauch,  T. Stein,  Yu-Chuan Su,  A. J. W. Thom,  
 A. Tkatchenko,  T. Tsuchimochi,  N. M. Tubman,  L. Vogt,  M. L. Vidal,  
 O. Vydrov,  M. A. Watson,  J. Wenzel,  M. de Wergifosse,  T. A. Wesolowski,  
 A. White,  J. Witte,  A. Yamada,  Jun Yang,  K. Yao,  S. Yeganeh,  
 S. R. Yost,  Zhi-Qiang You,  A. Zech,  Igor Ying Zhang,  Xing Zhang,  
 Yan Zhao,  Ying Zhu,  B. R. Brooks,  G. K. L. Chan,  C. J. Cramer,  
 M. S. Gordon,  W. J. Hehre,  A. Klamt,  M. W. Schmidt,  C. D. Sherrill,  
 D. G. Truhlar,  A. Aspuru-Guzik,  R. Baer,  A. T. Bell,  N. A. Besley,  
 Jeng-Da Chai,  A. E. DePrince, III,  R. A. DiStasio Jr.,  A. Dreuw,  
 B. D. Dunietz,  T. R. Furlani,  Chao-Ping Hsu,  Yousung Jung,  Jing Kong,  
 D. S. Lambrecht,  WanZhen Liang,  C. Ochsenfeld,  V. A. Rassolov,  
 L. V. Slipchenko,  J. E. Subotnik,  T. Van Voorhis,  J. M. Herbert,  
 A. I. Krylov,  P. M. W. Gill,  M. Head-Gordon

 Contributors to earlier versions of Q-Chem not listed above: 
 R. D. Adamson,  B. Austin,  J. Baker,  G. J. O. Beran,  K. Brandhorst,  
 S. T. Brown,  E. F. C. Byrd,  A. K. Chakraborty,  C.-L. Cheng,  
 Siu Hung Chien,  D. M. Chipman,  D. L. Crittenden,  H. Dachsel,  
 R. J. Doerksen,  A. D. Dutoi,  L. Fusti-Molnar,  W. A. Goddard III,  
 A. Golubeva-Zadorozhnaya,  S. R. Gwaltney,  G. Hawkins,  A. Heyden,  
 S. Hirata,  G. Kedziora,  F. J. Keil,  C. Kelley,  Jihan Kim,  R. A. King,  
 R. Z. Khaliullin,  P. P. Korambath,  W. Kurlancheek,  A. M. Lee,  M. S. Lee,  
 S. V. Levchenko,  Ching Yeh Lin,  D. Liotard,  R. C. Lochan,  I. Lotan,  
 P. E. Maslen,  N. Nair,  D. P. O'Neill,  D. Neuhauser,  E. Neuscamman,  
 C. M. Oana,  R. Olson,  B. Peters,  R. Peverati,  P. A. Pieniazek,  
 Y. M. Rhee,  J. Ritchie,  M. A. Rohrdanz,  E. Rosta,  N. J. Russ,  
 H. F. Schaefer III,  N. E. Schultz,  N. Shenvi,  A. C. Simmonett,  A. Sodt,  
 D. Stuck,  K. S. Thanthiriwatte,  V. Vanovschi,  Tao Wang,  A. Warshel,  
 C. F. Williams,  Q. Wu,  X. Xu,  W. Zhang

 Please cite Q-Chem as follows:
 Y. Shao et al., Mol. Phys. 113, 184-215 (2015)
 DOI: 10.1080/00268976.2014.952696

 Q-Chem 5.1.2 for Intel X86 EM64T Linux

 Parts of Q-Chem use Armadillo 8.300.2 (Tropical Shenanigans).
 http://arma.sourceforge.net/

 Q-Chem begins on Wed Jul 10 15:47:02 2019  

Host: 
0

     Scratch files written to /scratch/xuedong/qchem16560//
 Dec218 |scratch|qcdevops|jenkins|workspace|build_RNUM 6581   
Processing $rem in /home/qwang/software/qchem5.1.2/config/preferences.
 MEM_TOTAL  4000 
Core orbitals will be frozen
Input Ideriv = 1
Curr. Ideriv = -1
Max.  Ideriv = 1

Checking the input file for inconsistencies... 	...done.

--------------------------------------------------------------
User input:
--------------------------------------------------------------
$molecule
0 1
--
0 1
O     2.477729308    -0.071662873    -0.195030085
H     2.720187232     0.518852264    -0.912611155
H     2.785696880     0.384663541     0.591916196
--
0 1
Si    -0.767876925    -0.017603119     0.017732780
H    -0.328132115     1.258815625    -0.590773758
H    -0.398217290    -1.168225052    -0.815874964
H    -0.203265702    -0.115257236     1.381759788
O    -2.433726455    -0.073834866     0.082301765
H    -2.859950993     0.606391229     0.605556900
$end

$rem
BASIS = aug-cc-pVTZ
JOB_TYPE  =  BSSE
METHOD  =  MP2
SCF_CONVERGENCE  =  7
SCF_MAX_CYCLES  =  200
$end

--------------------------------------------------------------
 ----------------------------------------------------------------
             Standard Nuclear Orientation (Angstroms)
    I     Atom           X                Y                Z
 ----------------------------------------------------------------
    1      O      -2.7244029198     0.0459548811     0.0850409523
    2      H      -3.0186815784     0.4175682616    -0.7502554804
    3      H      -2.9835186992    -0.8771690940     0.0296928699
    4      Si      0.5276015430     0.0122560952     0.0110025899
    5      H       0.0379317025    -0.0254685240    -1.3860302713
    6      H       0.1133307340     1.2436384599     0.6947848051
    7      H       0.0551820158    -1.2002431868     0.7149607703
    8      O       2.1944899546     0.0717953467     0.0290003858
    9      H       2.6486379451    -0.6719130716    -0.3695196572
 ----------------------------------------------------------------
 Molecular Point Group                 C1    NOp =  1
 Largest Abelian Subgroup              C1    NOp =  1
 Nuclear Repulsion Energy =   110.3445208610 hartrees
 There are       18 alpha and       18 beta electrons
 Requested basis set is aug-cc-pVTZ
 There are 98 shells and 280 basis functions

 Total QAlloc Memory Limit   4000 MB
 Mega-Array Size       188 MB
 MEM_STATIC part       192 MB

                       Distance Matrix (Angstroms)
             O (  1)   H (  2)   H (  3)   Si(  4)   H (  5)   H (  6)
   H (  2)  0.960425
   H (  3)  0.960397  1.511920
   Si(  4)  3.253022  3.649646  3.622070
   H (  5)  3.130438  3.153312  3.443665  1.480845
   H (  6)  3.139899  3.546834  3.811909  1.468156  2.438464
   H (  7)  3.110611  3.769988  3.131720  1.479490  2.407188  2.444657
   O (  8)  4.919280  5.282420  5.264248  1.668049  2.581185  2.479457
   H (  9)  5.439810  5.783636  5.650017  2.260902  2.875234  3.351099
             H (  7)   O (  8)
   O (  8)  2.581717
   H (  9)  2.860287  0.958212
 
 A cutoff of  1.0D-10 yielded   4508 shell pairs
 There are     36352 function pairs (     47073 Cartesian)
 
 -------------------------------------------------------
 OpenMP Integral Computing Module                       
 Release: version 1.0, May 2013, Q-Chem Inc. Pittsburgh 
 -------------------------------------------------------
 Integral Job Info:
 Integral job number is                      11
 Integral operator is                         1
 short-range coefficients                     0
 long-range coefficients              100000000
 Omega coefficients                           0
 if combine SR and LR in K                    0
 Integral screening is                        0
 Integral computing path is                   2
 max size of driver memory is            800000
 size of driver memory is                776718
 size of scratch memory is             29531563
 max col of scratch BK array              10000
 max len of scratch array in speh3          662
 max len of scratch index in speh4           32
 max int batch size is                      520
 min int batch size is                       52
 fixed nKL is                                31
 max L of basis functions is                  3
 order of int derivative is                   0
 number of shells is                         98
 number of basis is                         319
 number of cartesian basis is               319
 number of contracted shell pairs          4508
 number of primitive shell pairs          13755
 maxK2 (contraction) of shell pair          169
 max number of K2 of shell pair               1
 max number of CS2 of shell pair            745
 max number of PS2 of shell pair           1027
 mem total for path MDJ                  629008
 -------------------------------------------------------
 Smallest overlap matrix eigenvalue = 2.79E-05

 Scale SEOQF with 1.000000e-01/1.000000e-01/1.000000e-01

 Standard Electronic Orientation quadrupole field applied
 Nucleus-field energy     =     0.0000000045 hartrees
 Guess MOs from converged MOs on fragments

-----------------------------------------------------------------
 SCF on fragment 1 out of 2
/home/qwang/software/qchem5.1.2/exe/qcprog.exe /scratch/xuedong/qchem16560/Frg1.input /scratch/xuedong/qchem16560/Frg1/ > /dev/null 
 SCF on fragment 2 out of 2
/home/qwang/software/qchem5.1.2/exe/qcprog.exe /scratch/xuedong/qchem16560/Frg2.input /scratch/xuedong/qchem16560/Frg2/ > /dev/null 
-----------------------------------------------------------------
 Done with SCF on isolated fragments
-----------------------------------------------------------------

 User-specified occupied guess orbitals will be used
 A restricted Hartree-Fock SCF calculation will be
 performed using Pulay DIIS extrapolation
 SCF converges when DIIS error is below 1.0E-07
 using 6 threads for integral computing
 -------------------------------------------------------
 OpenMP Integral computing Module                
 Release: version 1.0, May 2013, Q-Chem Inc. Pittsburgh 
 -------------------------------------------------------
 ---------------------------------------
  Cycle       Energy         DIIS Error
 ---------------------------------------
    1    -442.2691479111      2.47E-04
    2    -442.2702380178      5.29E-05
    3    -442.2703052428      1.88E-05
    4    -442.2703102404      8.11E-06
    5    -442.2703111287      1.52E-06
    6    -442.2703111808      3.95E-07
    7    -442.2703111838      1.37E-07
    8    -442.2703111841      5.21E-08 Convergence criterion met
 ---------------------------------------
 SCF time:  CPU 166.64 s  wall 27.81 s

-----------------------------------------------------------------
 SCF CP correction for fragment 1 out of 2
/home/qwang/software/qchem5.1.2/exe/qcprog.exe /scratch/xuedong/qchem16560/Frg1.input /scratch/xuedong/qchem16560/Frg1BSSE/ > /dev/null 
 SCF CP correction for fragment 2 out of 2
/home/qwang/software/qchem5.1.2/exe/qcprog.exe /scratch/xuedong/qchem16560/Frg2.input /scratch/xuedong/qchem16560/Frg2BSSE/ > /dev/null 
-----------------------------------------------------------------
 Done with counterpoise correction on fragments
-----------------------------------------------------------------

 SCF   energy in the final basis set = -442.27031118
 Total energy in the final basis set = -442.27031118
 
 Components of the MP2 correlation energy:
        aaaa  correlation energy =        -0.0737187005 au
        abab  correlation energy =        -0.5090301472 au
        bbbb  correlation energy =        -0.0737187005 au
        non-Brillouin singles    =        -0.0000000000 au

 Total  MP2   correlation energy =                    -0.65646755 au
        MP2         total energy =                  -442.92677873 au
 
 --------------------------------------------------------------
 
                    Orbital Energies (a.u.)
 --------------------------------------------------------------
 
 Alpha MOs
 -- Occupied --
-68.785 -20.577 -20.549  -6.130  -4.236  -4.236  -4.236  -1.362
 -1.330  -0.746  -0.724  -0.640  -0.596  -0.543  -0.541  -0.518
 -0.466  -0.448
 -- Virtual --
  0.024   0.035   0.046   0.058   0.062   0.070   0.073   0.076
  0.092   0.131   0.132   0.153   0.156   0.168   0.177   0.181
  0.187   0.212   0.219   0.222   0.229   0.235   0.240   0.247
  0.257   0.268   0.277   0.287   0.295   0.307   0.312   0.337
  0.341   0.359   0.368   0.372   0.384   0.387   0.392   0.413
  0.426   0.436   0.437   0.442   0.454   0.464   0.469   0.479
  0.535   0.545   0.572   0.584   0.593   0.614   0.616   0.635
  0.642   0.645   0.657   0.667   0.671   0.683   0.690   0.703
  0.755   0.773   0.785   0.823   0.826   0.833   0.853   0.865
  0.877   0.889   0.904   0.925   0.936   0.947   0.960   0.975
  0.993   0.998   1.000   1.022   1.027   1.038   1.048   1.056
  1.076   1.079   1.091   1.103   1.111   1.133   1.136   1.142
  1.173   1.180   1.193   1.204   1.216   1.221   1.244   1.252
  1.263   1.279   1.312   1.319   1.348   1.353   1.358   1.373
  1.384   1.399   1.420   1.423   1.445   1.466   1.471   1.477
  1.496   1.520   1.563   1.565   1.629   1.651   1.664   1.674
  1.756   1.778   1.826   1.830   1.840   1.899   1.934   1.957
  1.970   1.985   2.019   2.028   2.033   2.061   2.081   2.161
  2.164   2.235   2.254   2.322   2.351   2.365   2.415   2.426
  2.436   2.474   2.484   2.508   2.513   2.551   2.598   2.607
  2.642   2.703   2.718   2.750   2.786   2.822   2.841   2.879
  2.898   2.913   3.053   3.100   3.142   3.284   3.406   3.619
  3.651   3.726   3.764   3.795   3.910   4.006   4.008   4.047
  4.065   4.125   4.132   4.145   4.176   4.186   4.189   4.218
  4.229   4.268   4.299   4.318   4.332   4.372   4.384   4.409
  4.418   4.445   4.451   4.478   4.519   4.530   4.537   4.546
  4.561   4.602   4.704   4.733   4.773   4.789   4.810   4.822
  4.842   4.875   4.912   5.044   5.091   5.126   5.159   5.177
  5.190   5.266   5.348   5.457   5.461   5.574   5.691   5.733
  6.241   6.365   6.539   6.726   6.735   6.767   6.829   6.869
  6.921   7.174   7.227   7.274   7.293   7.301   7.320   7.338
  7.357   7.374   7.384   7.397   7.566   7.601   7.771   7.896
  7.946   8.139   8.838   9.097  14.958  15.923
 --------------------------------------------------------------
 
          Ground-State Mulliken Net Atomic Charges

     Atom                 Charge (a.u.)
  ----------------------------------------
      1 O                    -0.453907
      2 H                     0.220161
      3 H                     0.216425
      4 Si                    1.068326
      5 H                    -0.203972
      6 H                    -0.136560
      7 H                    -0.197188
      8 O                    -0.615147
      9 H                     0.101862
  ----------------------------------------
  Sum of atomic charges =    -0.000000

 -----------------------------------------------------------------
                    Cartesian Multipole Moments
 -----------------------------------------------------------------
    Charge (ESU x 10^10)
                -0.0000
    Dipole Moment (Debye)
         X      -1.5760      Y      -2.0784      Z      -2.0333
       Tot       3.3072
    Quadrupole Moments (Debye-Ang)
        XX     -23.2473     XY      -1.1594     YY     -25.6311
        XZ       2.5760     YZ      -0.2349     ZZ     -27.6130
    Octopole Moments (Debye-Ang^2)
       XXX     -23.1514    XXY     -19.7231    XYY      -4.3547
       YYY      -2.2269    XXZ     -20.6453    XYZ       4.6163
       YYZ      -2.0378    XZZ      -3.3922    YZZ       0.3059
       ZZZ      -0.0021
    Hexadecapole Moments (Debye-Ang^3)
      XXXX    -469.5826   XXXY      -5.0764   XXYY     -75.5799
      XYYY       1.4839   YYYY     -53.7565   XXXZ      29.7992
      XXYZ      -3.9766   XYYZ      -0.6156   YYYZ       0.1938
      XXZZ     -90.4264   XYZZ      -2.3531   YYZZ     -17.9838
      XZZZ       3.9449   YZZZ      -0.5393   ZZZZ     -54.3042
 -----------------------------------------------------------------

 ---------------------------------------------------------------------
 *                     Fragment's binding energy                     *
 ---------------------------------------------------------------------
    Fragment           E(TOTAL)         E(CP-CORR)           DE(BSSE)
 ---------------------------------------------------------------------
           1     -76.3289882622     -76.3293027846       0.0003145224
           2    -366.5938162673    -366.5940932150       0.0002769478
     Complex    -442.9267787324
 ---------------------------------------------------------------------
  DE, kJ/mol     -10.4343935604      -8.8814702437
 ---------------------------------------------------------------------

Archival summary:
1\1\gm4.localdomain\SP\MP2\BasisUnspecified\i126\xuedong\WedJul1015:50:412019WedJul1015:50:412019\0\\#,MP2,BasisUnspecified,\\0,1\Si\H,1,1.46816\H,1,1.47949,2,112.065\H,1,1.48084,2,111.558,3,122.291,0\O,1,1.66805,2,104.301,3,-119.046,0\H,5,0.958212,1,116.195,2,179.05,0\O,3,3.11061,1,81.9896,2,61.244,0\H,7,0.960397,3,82.3963,1,147.522,0\H,7,0.960425,3,127.224,1,45.8948,0\\HF=-442.270311\MP2=-442.926779\\@

 Total job time:  218.40s(wall), 451.41s(cpu) 
 Wed Jul 10 15:50:41 2019

        *************************************************************
        *                                                           *
        *  Thank you very much for using Q-Chem.  Have a nice day.  *
        *                                                           *
        *************************************************************


