
Running Job 1 of 1 ../qm_inp/SiH3OH_water.con2.090.qcinp
qchem ../qm_inp/SiH3OH_water.con2.090.qcinp_16144.0 /scratch/xuedong/qchem16144/ 1
/home/qwang/software/qchem5.1.2/exe/qcprog.exe_s ../qm_inp/SiH3OH_water.con2.090.qcinp_16144.0 /scratch/xuedong/qchem16144/
Check license passed

                  Welcome to Q-Chem
     A Quantum Leap Into The Future Of Chemistry


 Q-Chem 5.1, Q-Chem, Inc., Pleasanton, CA (2018)

 Yihan Shao,  Zhengting Gan,  E. Epifanovsky,  A. T. B. Gilbert,  M. Wormit,  
 J. Kussmann,  A. W. Lange,  A. Behn,  Jia Deng,  Xintian Feng,  D. Ghosh,  
 M. Goldey,  P. R. Horn,  L. D. Jacobson,  I. Kaliman,  T. Kus,  A. Landau,  
 Jie Liu,  E. I. Proynov,  R. M. Richard,  R. P. Steele,  E. J. Sundstrom,  
 H. L. Woodcock III,  P. M. Zimmerman,  D. Zuev,  B. Albrecht,  E. Alguire,  
 S. A. Baeppler,  D. Barton,  Z. Benda,  Y. A. Bernard,  E. J. Berquist,  
 K. B. Bravaya,  H. Burton,  D. Casanova,  Chun-Min Chang,  Yunqing Chen,  
 A. Chien,  K. D. Closser,  M. P. Coons,  S. Coriani,  S. Dasgupta,  
 A. L. Dempwolff,  M. Diedenhofen,  Hainam Do,  R. G. Edgar,  Po-Tung Fang,  
 S. Faraji,  S. Fatehi,  Qingguo Feng,  K. D. Fenk,  J. Fosso-Tande,  
 J. Gayvert,  Qinghui Ge,  A. Ghysels,  G. Gidofalvi,  J. Gomes,  
 J. Gonthier,  A. Gunina,  D. Hait,  M. W. D. Hanson-Heine,  
 P. H. P. Harbach,  A. W. Hauser,  J. E. Herr,  E. G. Hohenstein,  
 Z. C. Holden,  Kerwin Hui,  B. C. Huynh,  T.-C. Jagau,  Hyunjun Ji,  
 B. Kaduk,  K. Khistyaev,  Jaehoon Kim,  P. Klunzinger,  K. Koh,  
 D. Kosenkov,  L. Koulias,  T. Kowalczyk,  C. M. Krauter,  A. Kunitsa,  
 Ka Un Lao,  A. Laurent,  K. V. Lawler,  Joonho Lee,  D. Lefrancois,  
 S. Lehtola,  D. S. Levine,  Yi-Pei Li,  You-Sheng Lin,  Fenglai Liu,  
 E. Livshits,  A. Luenser,  P. Manohar,  E. Mansoor,  S. F. Manzer,  
 Shan-Ping Mao,  Yuezhi Mao,  N. Mardirossian,  A. V. Marenich,  
 T. Markovich,  L. A. Martinez-Martinez,  S. A. Maurer,  N. J. Mayhall,  
 S. C. McKenzie,  J.-M. Mewes,  A. F. Morrison,  J. W. Mullinax,  K. Nanda,  
 T. S. Nguyen-Beck,  R. Olivares-Amaya,  J. A. Parkhill,  T. M. Perrine,  
 F. Plasser,  P. Pokhilko,  S. Prager,  A. Prociuk,  E. Ramos,  D. R. Rehn,  
 F. Rob,  M. Schneider,  N. Sergueev,  S. M. Sharada,  S. Sharma,  
 D. W. Small,  T. Stauch,  T. Stein,  Yu-Chuan Su,  A. J. W. Thom,  
 A. Tkatchenko,  T. Tsuchimochi,  N. M. Tubman,  L. Vogt,  M. L. Vidal,  
 O. Vydrov,  M. A. Watson,  J. Wenzel,  M. de Wergifosse,  T. A. Wesolowski,  
 A. White,  J. Witte,  A. Yamada,  Jun Yang,  K. Yao,  S. Yeganeh,  
 S. R. Yost,  Zhi-Qiang You,  A. Zech,  Igor Ying Zhang,  Xing Zhang,  
 Yan Zhao,  Ying Zhu,  B. R. Brooks,  G. K. L. Chan,  C. J. Cramer,  
 M. S. Gordon,  W. J. Hehre,  A. Klamt,  M. W. Schmidt,  C. D. Sherrill,  
 D. G. Truhlar,  A. Aspuru-Guzik,  R. Baer,  A. T. Bell,  N. A. Besley,  
 Jeng-Da Chai,  A. E. DePrince, III,  R. A. DiStasio Jr.,  A. Dreuw,  
 B. D. Dunietz,  T. R. Furlani,  Chao-Ping Hsu,  Yousung Jung,  Jing Kong,  
 D. S. Lambrecht,  WanZhen Liang,  C. Ochsenfeld,  V. A. Rassolov,  
 L. V. Slipchenko,  J. E. Subotnik,  T. Van Voorhis,  J. M. Herbert,  
 A. I. Krylov,  P. M. W. Gill,  M. Head-Gordon

 Contributors to earlier versions of Q-Chem not listed above: 
 R. D. Adamson,  B. Austin,  J. Baker,  G. J. O. Beran,  K. Brandhorst,  
 S. T. Brown,  E. F. C. Byrd,  A. K. Chakraborty,  C.-L. Cheng,  
 Siu Hung Chien,  D. M. Chipman,  D. L. Crittenden,  H. Dachsel,  
 R. J. Doerksen,  A. D. Dutoi,  L. Fusti-Molnar,  W. A. Goddard III,  
 A. Golubeva-Zadorozhnaya,  S. R. Gwaltney,  G. Hawkins,  A. Heyden,  
 S. Hirata,  G. Kedziora,  F. J. Keil,  C. Kelley,  Jihan Kim,  R. A. King,  
 R. Z. Khaliullin,  P. P. Korambath,  W. Kurlancheek,  A. M. Lee,  M. S. Lee,  
 S. V. Levchenko,  Ching Yeh Lin,  D. Liotard,  R. C. Lochan,  I. Lotan,  
 P. E. Maslen,  N. Nair,  D. P. O'Neill,  D. Neuhauser,  E. Neuscamman,  
 C. M. Oana,  R. Olson,  B. Peters,  R. Peverati,  P. A. Pieniazek,  
 Y. M. Rhee,  J. Ritchie,  M. A. Rohrdanz,  E. Rosta,  N. J. Russ,  
 H. F. Schaefer III,  N. E. Schultz,  N. Shenvi,  A. C. Simmonett,  A. Sodt,  
 D. Stuck,  K. S. Thanthiriwatte,  V. Vanovschi,  Tao Wang,  A. Warshel,  
 C. F. Williams,  Q. Wu,  X. Xu,  W. Zhang

 Please cite Q-Chem as follows:
 Y. Shao et al., Mol. Phys. 113, 184-215 (2015)
 DOI: 10.1080/00268976.2014.952696

 Q-Chem 5.1.2 for Intel X86 EM64T Linux

 Parts of Q-Chem use Armadillo 8.300.2 (Tropical Shenanigans).
 http://arma.sourceforge.net/

 Q-Chem begins on Wed Jul 10 15:30:24 2019  

Host: 
0

     Scratch files written to /scratch/xuedong/qchem16144//
 Dec218 |scratch|qcdevops|jenkins|workspace|build_RNUM 6581   
Processing $rem in /home/qwang/software/qchem5.1.2/config/preferences.
 MEM_TOTAL  4000 
Core orbitals will be frozen
Input Ideriv = 1
Curr. Ideriv = -1
Max.  Ideriv = 1

Checking the input file for inconsistencies... 	...done.

--------------------------------------------------------------
User input:
--------------------------------------------------------------
$molecule
0 1
--
0 1
O     2.477729308    -0.071662873    -0.195030085
H     2.720187232     0.518852264    -0.912611155
H     2.785696880     0.384663541     0.591916196
--
0 1
Si    -0.158857313    -0.016091080    -0.020440998
H     0.280887497     1.260327663    -0.628947536
H     0.210802323    -1.166713014    -0.854048742
H     0.405753910    -0.113745198     1.343586010
O    -1.824706843    -0.072322828     0.044127987
H    -2.250931381     0.607903267     0.567383123
$end

$rem
BASIS = aug-cc-pVTZ
JOB_TYPE  =  BSSE
METHOD  =  MP2
SCF_CONVERGENCE  =  7
SCF_MAX_CYCLES  =  200
$end

--------------------------------------------------------------
 ----------------------------------------------------------------
             Standard Nuclear Orientation (Angstroms)
    I     Atom           X                Y                Z
 ----------------------------------------------------------------
    1      O      -2.2836672930     0.0446426620     0.0838169246
    2      H      -2.5788733178     0.4155970943    -0.7514451757
    3      H      -2.5421752252    -0.8786936808     0.0291733720
    4      Si      0.3581018093     0.0124172939     0.0118716745
    5      H      -0.1326535881    -0.0264073833    -1.3847500698
    6      H      -0.0564936856     1.2438761712     0.6953192302
    7      H      -0.1129007932    -1.2000346445     0.7168601028
    8      O       2.0249615709     0.0731424383     0.0285093453
    9      H       2.4793170569    -0.6704604744    -0.3699710619
 ----------------------------------------------------------------
 Molecular Point Group                 C1    NOp =  1
 Largest Abelian Subgroup              C1    NOp =  1
 Nuclear Repulsion Energy =   117.6372810267 hartrees
 There are       18 alpha and       18 beta electrons
 Requested basis set is aug-cc-pVTZ
 There are 98 shells and 280 basis functions

 Total QAlloc Memory Limit   4000 MB
 Mega-Array Size       188 MB
 MEM_STATIC part       192 MB

                       Distance Matrix (Angstroms)
             O (  1)   H (  2)   H (  3)   Si(  4)   H (  5)   H (  6)
   H (  2)  0.960425
   H (  3)  0.960397  1.511920
   Si(  4)  2.642945  3.061214  3.034137
   H (  5)  2.605494  2.565236  2.920850  1.480845
   H (  6)  2.602383  3.023503  3.335816  1.468156  2.438464
   H (  7)  2.581122  3.293510  2.545103  1.479490  2.407188  2.444657
   O (  8)  4.309078  4.681976  4.665269  1.668049  2.581185  2.479457
   H (  9)  4.837697  5.187517  5.041633  2.260902  2.875234  3.351099
             H (  7)   O (  8)
   O (  8)  2.581717
   H (  9)  2.860287  0.958212
 
 A cutoff of  1.0D-10 yielded   4626 shell pairs
 There are     37510 function pairs (     48581 Cartesian)
 
 -------------------------------------------------------
 OpenMP Integral Computing Module                       
 Release: version 1.0, May 2013, Q-Chem Inc. Pittsburgh 
 -------------------------------------------------------
 Integral Job Info:
 Integral job number is                      11
 Integral operator is                         1
 short-range coefficients                     0
 long-range coefficients              100000000
 Omega coefficients                           0
 if combine SR and LR in K                    0
 Integral screening is                        0
 Integral computing path is                   2
 max size of driver memory is            800000
 size of driver memory is                776718
 size of scratch memory is             29531563
 max col of scratch BK array              10000
 max len of scratch array in speh3          662
 max len of scratch index in speh4           32
 max int batch size is                      520
 min int batch size is                       52
 fixed nKL is                                31
 max L of basis functions is                  3
 order of int derivative is                   0
 number of shells is                         98
 number of basis is                         319
 number of cartesian basis is               319
 number of contracted shell pairs          4626
 number of primitive shell pairs          14162
 maxK2 (contraction) of shell pair          169
 max number of K2 of shell pair               1
 max number of CS2 of shell pair            762
 max number of PS2 of shell pair           1027
 mem total for path MDJ                  631080
 -------------------------------------------------------
 Smallest overlap matrix eigenvalue = 2.41E-05

 Scale SEOQF with 1.000000e-01/1.000000e-01/1.000000e-01

 Standard Electronic Orientation quadrupole field applied
 Nucleus-field energy     =     0.0000000033 hartrees
 Guess MOs from converged MOs on fragments

-----------------------------------------------------------------
 SCF on fragment 1 out of 2
/home/qwang/software/qchem5.1.2/exe/qcprog.exe /scratch/xuedong/qchem16144/Frg1.input /scratch/xuedong/qchem16144/Frg1/ > /dev/null 
 SCF on fragment 2 out of 2
/home/qwang/software/qchem5.1.2/exe/qcprog.exe /scratch/xuedong/qchem16144/Frg2.input /scratch/xuedong/qchem16144/Frg2/ > /dev/null 
-----------------------------------------------------------------
 Done with SCF on isolated fragments
-----------------------------------------------------------------

 User-specified occupied guess orbitals will be used
 A restricted Hartree-Fock SCF calculation will be
 performed using Pulay DIIS extrapolation
 SCF converges when DIIS error is below 1.0E-07
 using 6 threads for integral computing
 -------------------------------------------------------
 OpenMP Integral computing Module                
 Release: version 1.0, May 2013, Q-Chem Inc. Pittsburgh 
 -------------------------------------------------------
 ---------------------------------------
  Cycle       Energy         DIIS Error
 ---------------------------------------
    1    -442.2595442060      5.46E-04
    2    -442.2650247600      1.57E-04
    3    -442.2655049137      7.75E-05
    4    -442.2655699865      1.94E-05
    5    -442.2655777483      3.61E-06
    6    -442.2655780479      1.02E-06
    7    -442.2655780695      4.40E-07
    8    -442.2655780723      1.43E-07
    9    -442.2655780728      3.27E-08 Convergence criterion met
 ---------------------------------------
 SCF time:  CPU 228.26 s  wall 38.09 s

-----------------------------------------------------------------
 SCF CP correction for fragment 1 out of 2
/home/qwang/software/qchem5.1.2/exe/qcprog.exe /scratch/xuedong/qchem16144/Frg1.input /scratch/xuedong/qchem16144/Frg1BSSE/ > /dev/null 
 SCF CP correction for fragment 2 out of 2
/home/qwang/software/qchem5.1.2/exe/qcprog.exe /scratch/xuedong/qchem16144/Frg2.input /scratch/xuedong/qchem16144/Frg2BSSE/ > /dev/null 
-----------------------------------------------------------------
 Done with counterpoise correction on fragments
-----------------------------------------------------------------

 SCF   energy in the final basis set = -442.26557807
 Total energy in the final basis set = -442.26557807
 
 Components of the MP2 correlation energy:
        aaaa  correlation energy =        -0.0745836147 au
        abab  correlation energy =        -0.5109428565 au
        bbbb  correlation energy =        -0.0745836147 au
        non-Brillouin singles    =        -0.0000000000 au

 Total  MP2   correlation energy =                    -0.66011009 au
        MP2         total energy =                  -442.92568816 au
 
 --------------------------------------------------------------
 
                    Orbital Energies (a.u.)
 --------------------------------------------------------------
 
 Alpha MOs
 -- Occupied --
-68.780 -20.586 -20.543  -6.124  -4.230  -4.230  -4.230  -1.375
 -1.324  -0.742  -0.736  -0.645  -0.606  -0.549  -0.536  -0.510
 -0.458  -0.443
 -- Virtual --
  0.023   0.036   0.046   0.058   0.063   0.071   0.073   0.076
  0.092   0.127   0.134   0.156   0.158   0.172   0.178   0.183
  0.190   0.215   0.228   0.228   0.233   0.244   0.247   0.254
  0.266   0.270   0.279   0.295   0.298   0.311   0.319   0.331
  0.347   0.377   0.379   0.380   0.390   0.395   0.406   0.421
  0.434   0.444   0.447   0.453   0.461   0.466   0.470   0.483
  0.533   0.558   0.585   0.593   0.602   0.628   0.632   0.643
  0.650   0.654   0.667   0.670   0.677   0.709   0.723   0.740
  0.773   0.784   0.794   0.828   0.843   0.853   0.873   0.896
  0.904   0.912   0.928   0.940   0.954   0.965   0.975   1.000
  1.006   1.014   1.026   1.031   1.043   1.049   1.060   1.069
  1.110   1.116   1.133   1.142   1.149   1.160   1.171   1.179
  1.182   1.199   1.203   1.215   1.232   1.257   1.277   1.298
  1.322   1.333   1.360   1.365   1.370   1.387   1.396   1.414
  1.419   1.430   1.439   1.450   1.479   1.492   1.508   1.521
  1.555   1.585   1.599   1.636   1.654   1.665   1.684   1.709
  1.813   1.817   1.843   1.853   1.904   1.943   1.966   1.976
  1.990   2.031   2.035   2.044   2.073   2.099   2.143   2.185
  2.228   2.242   2.261   2.322   2.361   2.393   2.431   2.447
  2.451   2.485   2.543   2.547   2.585   2.635   2.643   2.669
  2.708   2.722   2.743   2.770   2.798   2.830   2.854   2.897
  2.911   2.937   3.073   3.137   3.162   3.345   3.440   3.703
  3.727   3.778   3.822   3.859   3.932   4.050   4.056   4.079
  4.091   4.146   4.148   4.177   4.196   4.216   4.228   4.249
  4.277   4.305   4.320   4.352   4.367   4.383   4.408   4.446
  4.449   4.472   4.503   4.520   4.547   4.569   4.602   4.616
  4.647   4.684   4.728   4.763   4.810   4.827   4.850   4.862
  4.878   4.920   4.929   5.070   5.123   5.141   5.174   5.201
  5.227   5.319   5.379   5.468   5.491   5.625   5.706   5.773
  6.287   6.389   6.562   6.748   6.755   6.782   6.844   6.879
  6.948   7.194   7.233   7.285   7.292   7.314   7.337   7.348
  7.371   7.395   7.404   7.417   7.608   7.668   7.794   7.904
  7.972   8.165   8.883   9.233  15.004  16.206
 --------------------------------------------------------------
 
          Ground-State Mulliken Net Atomic Charges

     Atom                 Charge (a.u.)
  ----------------------------------------
      1 O                    -0.444273
      2 H                     0.219456
      3 H                     0.207329
      4 Si                    1.188143
      5 H                    -0.233322
      6 H                    -0.150861
      7 H                    -0.225674
      8 O                    -0.661824
      9 H                     0.101025
  ----------------------------------------
  Sum of atomic charges =     0.000000

 -----------------------------------------------------------------
                    Cartesian Multipole Moments
 -----------------------------------------------------------------
    Charge (ESU x 10^10)
                 0.0000
    Dipole Moment (Debye)
         X      -1.9745      Y      -2.0523      Z      -1.9934
       Tot       3.4762
    Quadrupole Moments (Debye-Ang)
        XX     -23.6054     XY      -1.3715     YY     -25.8302
        XZ       2.0266     YZ      -0.2131     ZZ     -27.7646
    Octopole Moments (Debye-Ang^2)
       XXX     -17.3405    XXY     -16.1118    XYY      -3.3557
       YYY      -2.1475    XXZ     -16.1479    XYZ       4.0165
       YYZ      -2.1650    XZZ      -2.6871    YZZ       0.3506
       ZZZ       0.2632
    Hexadecapole Moments (Debye-Ang^3)
      XXXX    -366.3076   XXXY      -9.4010   XXYY     -59.7231
      XYYY       0.8763   YYYY     -54.7746   XXXZ      16.0187
      XXYZ      -2.1771   XYYZ      -0.5295   YYYZ       0.2765
      XXZZ     -71.1775   XYZZ      -2.1877   YYZZ     -18.2646
      XZZZ       3.0968   YZZZ      -0.5095   ZZZZ     -55.1855
 -----------------------------------------------------------------

 ---------------------------------------------------------------------
 *                     Fragment's binding energy                     *
 ---------------------------------------------------------------------
    Fragment           E(TOTAL)         E(CP-CORR)           DE(BSSE)
 ---------------------------------------------------------------------
           1     -76.3289882622     -76.3295181115       0.0005298493
           2    -366.5938162673    -366.5943944963       0.0005782290
     Complex    -442.9256881587
 ---------------------------------------------------------------------
  DE, kJ/mol      -7.5710583964      -4.6617642766
 ---------------------------------------------------------------------

Archival summary:
1\1\gm4.localdomain\SP\MP2\BasisUnspecified\i126\xuedong\WedJul1015:34:462019WedJul1015:34:462019\0\\#,MP2,BasisUnspecified,\\0,1\Si\H,1,1.46816\H,1,1.47949,2,112.065\H,1,1.48084,2,111.558,3,122.291,0\O,1,1.66805,2,104.301,3,-119.046,0\H,5,0.958212,1,116.195,2,179.05,0\H,3,2.5451,1,94.1084,2,72.5903,0\O,7,0.960397,3,81.3206,1,-32.0583,0\H,8,0.960425,7,103.835,3,129.707,0\\HF=-442.265578\MP2=-442.925688\\@

 Total job time:  262.49s(wall), 555.83s(cpu) 
 Wed Jul 10 15:34:46 2019

        *************************************************************
        *                                                           *
        *  Thank you very much for using Q-Chem.  Have a nice day.  *
        *                                                           *
        *************************************************************


