
Running Job 1 of 3 ../qm_inp/SiH3OH_SiH3OH.con2.200.qcinp
qchem ../qm_inp/SiH3OH_SiH3OH.con2.200.qcinp_15128.0 /scratch/xuedong/qchem15128/ 1
/home/qwang/software/qchem5.1.2/exe/qcprog.exe_s ../qm_inp/SiH3OH_SiH3OH.con2.200.qcinp_15128.0 /scratch/xuedong/qchem15128/
Check license passed

                  Welcome to Q-Chem
     A Quantum Leap Into The Future Of Chemistry


 Q-Chem 5.1, Q-Chem, Inc., Pleasanton, CA (2018)

 Yihan Shao,  Zhengting Gan,  E. Epifanovsky,  A. T. B. Gilbert,  M. Wormit,  
 J. Kussmann,  A. W. Lange,  A. Behn,  Jia Deng,  Xintian Feng,  D. Ghosh,  
 M. Goldey,  P. R. Horn,  L. D. Jacobson,  I. Kaliman,  T. Kus,  A. Landau,  
 Jie Liu,  E. I. Proynov,  R. M. Richard,  R. P. Steele,  E. J. Sundstrom,  
 H. L. Woodcock III,  P. M. Zimmerman,  D. Zuev,  B. Albrecht,  E. Alguire,  
 S. A. Baeppler,  D. Barton,  Z. Benda,  Y. A. Bernard,  E. J. Berquist,  
 K. B. Bravaya,  H. Burton,  D. Casanova,  Chun-Min Chang,  Yunqing Chen,  
 A. Chien,  K. D. Closser,  M. P. Coons,  S. Coriani,  S. Dasgupta,  
 A. L. Dempwolff,  M. Diedenhofen,  Hainam Do,  R. G. Edgar,  Po-Tung Fang,  
 S. Faraji,  S. Fatehi,  Qingguo Feng,  K. D. Fenk,  J. Fosso-Tande,  
 J. Gayvert,  Qinghui Ge,  A. Ghysels,  G. Gidofalvi,  J. Gomes,  
 J. Gonthier,  A. Gunina,  D. Hait,  M. W. D. Hanson-Heine,  
 P. H. P. Harbach,  A. W. Hauser,  J. E. Herr,  E. G. Hohenstein,  
 Z. C. Holden,  Kerwin Hui,  B. C. Huynh,  T.-C. Jagau,  Hyunjun Ji,  
 B. Kaduk,  K. Khistyaev,  Jaehoon Kim,  P. Klunzinger,  K. Koh,  
 D. Kosenkov,  L. Koulias,  T. Kowalczyk,  C. M. Krauter,  A. Kunitsa,  
 Ka Un Lao,  A. Laurent,  K. V. Lawler,  Joonho Lee,  D. Lefrancois,  
 S. Lehtola,  D. S. Levine,  Yi-Pei Li,  You-Sheng Lin,  Fenglai Liu,  
 E. Livshits,  A. Luenser,  P. Manohar,  E. Mansoor,  S. F. Manzer,  
 Shan-Ping Mao,  Yuezhi Mao,  N. Mardirossian,  A. V. Marenich,  
 T. Markovich,  L. A. Martinez-Martinez,  S. A. Maurer,  N. J. Mayhall,  
 S. C. McKenzie,  J.-M. Mewes,  A. F. Morrison,  J. W. Mullinax,  K. Nanda,  
 T. S. Nguyen-Beck,  R. Olivares-Amaya,  J. A. Parkhill,  T. M. Perrine,  
 F. Plasser,  P. Pokhilko,  S. Prager,  A. Prociuk,  E. Ramos,  D. R. Rehn,  
 F. Rob,  M. Schneider,  N. Sergueev,  S. M. Sharada,  S. Sharma,  
 D. W. Small,  T. Stauch,  T. Stein,  Yu-Chuan Su,  A. J. W. Thom,  
 A. Tkatchenko,  T. Tsuchimochi,  N. M. Tubman,  L. Vogt,  M. L. Vidal,  
 O. Vydrov,  M. A. Watson,  J. Wenzel,  M. de Wergifosse,  T. A. Wesolowski,  
 A. White,  J. Witte,  A. Yamada,  Jun Yang,  K. Yao,  S. Yeganeh,  
 S. R. Yost,  Zhi-Qiang You,  A. Zech,  Igor Ying Zhang,  Xing Zhang,  
 Yan Zhao,  Ying Zhu,  B. R. Brooks,  G. K. L. Chan,  C. J. Cramer,  
 M. S. Gordon,  W. J. Hehre,  A. Klamt,  M. W. Schmidt,  C. D. Sherrill,  
 D. G. Truhlar,  A. Aspuru-Guzik,  R. Baer,  A. T. Bell,  N. A. Besley,  
 Jeng-Da Chai,  A. E. DePrince, III,  R. A. DiStasio Jr.,  A. Dreuw,  
 B. D. Dunietz,  T. R. Furlani,  Chao-Ping Hsu,  Yousung Jung,  Jing Kong,  
 D. S. Lambrecht,  WanZhen Liang,  C. Ochsenfeld,  V. A. Rassolov,  
 L. V. Slipchenko,  J. E. Subotnik,  T. Van Voorhis,  J. M. Herbert,  
 A. I. Krylov,  P. M. W. Gill,  M. Head-Gordon

 Contributors to earlier versions of Q-Chem not listed above: 
 R. D. Adamson,  B. Austin,  J. Baker,  G. J. O. Beran,  K. Brandhorst,  
 S. T. Brown,  E. F. C. Byrd,  A. K. Chakraborty,  C.-L. Cheng,  
 Siu Hung Chien,  D. M. Chipman,  D. L. Crittenden,  H. Dachsel,  
 R. J. Doerksen,  A. D. Dutoi,  L. Fusti-Molnar,  W. A. Goddard III,  
 A. Golubeva-Zadorozhnaya,  S. R. Gwaltney,  G. Hawkins,  A. Heyden,  
 S. Hirata,  G. Kedziora,  F. J. Keil,  C. Kelley,  Jihan Kim,  R. A. King,  
 R. Z. Khaliullin,  P. P. Korambath,  W. Kurlancheek,  A. M. Lee,  M. S. Lee,  
 S. V. Levchenko,  Ching Yeh Lin,  D. Liotard,  R. C. Lochan,  I. Lotan,  
 P. E. Maslen,  N. Nair,  D. P. O'Neill,  D. Neuhauser,  E. Neuscamman,  
 C. M. Oana,  R. Olson,  B. Peters,  R. Peverati,  P. A. Pieniazek,  
 Y. M. Rhee,  J. Ritchie,  M. A. Rohrdanz,  E. Rosta,  N. J. Russ,  
 H. F. Schaefer III,  N. E. Schultz,  N. Shenvi,  A. C. Simmonett,  A. Sodt,  
 D. Stuck,  K. S. Thanthiriwatte,  V. Vanovschi,  Tao Wang,  A. Warshel,  
 C. F. Williams,  Q. Wu,  X. Xu,  W. Zhang

 Please cite Q-Chem as follows:
 Y. Shao et al., Mol. Phys. 113, 184-215 (2015)
 DOI: 10.1080/00268976.2014.952696

 Q-Chem 5.1.2 for Intel X86 EM64T Linux

 Parts of Q-Chem use Armadillo 8.300.2 (Tropical Shenanigans).
 http://arma.sourceforge.net/

 Q-Chem begins on Wed Jul  3 17:45:11 2019  

Host: 
0

     Scratch files written to /scratch/xuedong/qchem15128//
 Dec218 |scratch|qcdevops|jenkins|workspace|build_RNUM 6581   
Processing $rem in /home/qwang/software/qchem5.1.2/config/preferences.
 MEM_TOTAL  4000 
Core orbitals will be frozen
Input Ideriv = 1
Curr. Ideriv = -1
Max.  Ideriv = 1

Checking the input file for inconsistencies... 	...done.

--------------------------------------------------------------
User input:
--------------------------------------------------------------
$molecule
0 1
Si    1.877277124    -0.264555006    -0.002147324
H     1.013054241     0.893525003     0.332506176
H     1.752218881    -1.299809326     1.036281626
H     1.434006711    -0.793004013    -1.311922261
O     3.481273335     0.161191906    -0.019552128
H     3.741996224     0.827557153    -0.657431446
Si   -5.063597322     0.386312322     0.055582568
H    -4.192495234    -0.802532295     0.222023395
H    -4.943641375     1.263683327     1.231049476
H    -4.624546992     1.098397760    -1.165639175
O    -6.665140687    -0.041837632    -0.022412071
H    -6.923267596    -0.608735366    -0.751056161
$end

$rem
BASIS = aug-cc-pVTZ
JOB_TYPE  =  SP
METHOD  =  MP2
SCF_MAX_CYCLES  =  200
$end

--------------------------------------------------------------
 ----------------------------------------------------------------
             Standard Nuclear Orientation (Angstroms)
    I     Atom           X                Y                Z
 ----------------------------------------------------------------
    1      Si      3.4782214316    -0.2197364431     0.0398467056
    2      H       2.5783364430     0.9341403127     0.2823315577
    3      H       3.3807450220    -1.1744110641     1.1555619350
    4      H       3.0556844021    -0.8616330025    -1.2253365473
    5      O       5.0687179055     0.2517763288    -0.0087730193
    6      H       5.3114967069     0.8741101082    -0.6962817190
    7      Si     -3.4792680910     0.2230244103     0.0386368916
    8      H      -2.5733452169    -0.9223317920     0.2981283868
    9      H      -3.3899332318     1.1923833820     1.1423824368
   10      H      -3.0575664985     0.8509569273    -1.2337946114
   11      O      -5.0669044864    -0.2582277649    -0.0076633959
   12      H      -5.3052717489    -0.8876349237    -0.6902704780
 ----------------------------------------------------------------
 Molecular Point Group                 C1    NOp =  1
 Largest Abelian Subgroup              C1    NOp =  1
 Nuclear Repulsion Energy =   174.7213260183 hartrees
 There are       26 alpha and       26 beta electrons
 Requested basis set is aug-cc-pVTZ
 There are 132 shells and 376 basis functions

 Total QAlloc Memory Limit   4000 MB
 Mega-Array Size       188 MB
 MEM_STATIC part       192 MB

                       Distance Matrix (Angstroms)
             Si(  1)   H (  2)   H (  3)   H (  4)   O (  5)   H (  6)
   H (  2)  1.483248
   H (  3)  1.471640  2.419169
   H (  4)  1.480290  2.392849  2.423257
   O (  5)  1.659629  2.598531  2.497787  2.602309
   H (  6)  2.258159  2.903696  3.369505  2.895063  0.958597
   Si(  7)  6.971564  6.104068  7.089438  6.743865  8.548166  8.845426
   H (  8)  6.097689  5.475999  6.020791  5.831861  7.737819  8.147809
   H (  9)  7.097973  6.035447  7.172445  7.167361  8.588287  8.899262
   H ( 10)  6.744262  5.836862  7.159818  6.348612  8.239915  8.386339
   O ( 11)  8.545345  7.743097  8.576437  8.235489 10.148446 10.462676
   H ( 12)  8.839056  8.149607  8.884606  8.378100 10.458602 10.761949
             Si(  7)   H (  8)   H (  9)   H ( 10)   O ( 11)
   H (  8)  1.483197
   H (  9)  1.471697  2.419008
   H ( 10)  1.480275  2.392867  2.423480
   O ( 11)  1.659619  2.598534  2.497821  2.602139
   H ( 12)  2.258132  2.905436  3.369513  2.893147  0.958606
 
 A cutoff of  1.0D-08 yielded   5875 shell pairs
 There are     44185 function pairs (     56512 Cartesian)
 
 -------------------------------------------------------
 OpenMP Integral Computing Module                       
 Release: version 1.0, May 2013, Q-Chem Inc. Pittsburgh 
 -------------------------------------------------------
 Integral Job Info:
 Integral job number is                      11
 Integral operator is                         1
 short-range coefficients                     0
 long-range coefficients              100000000
 Omega coefficients                           0
 if combine SR and LR in K                    0
 Integral screening is                        0
 Integral computing path is                   2
 max size of driver memory is            800000
 size of driver memory is                776718
 size of scratch memory is             29531563
 max col of scratch BK array              10000
 max len of scratch array in speh3          662
 max len of scratch index in speh4           32
 max int batch size is                      520
 min int batch size is                       52
 fixed nKL is                                31
 max L of basis functions is                  3
 order of int derivative is                   0
 number of shells is                        132
 number of basis is                         428
 number of cartesian basis is               428
 number of contracted shell pairs          5875
 number of primitive shell pairs          19625
 maxK2 (contraction) of shell pair          169
 max number of K2 of shell pair               1
 max number of CS2 of shell pair           1050
 max number of PS2 of shell pair           2028
 mem total for path MDJ                  637296
 -------------------------------------------------------
 Smallest overlap matrix eigenvalue = 3.29E-05

 Q-Chem warning in module stvman/mkSTV.C, line 306:

 Overlap eigenvalue is smaller than square root of threshold
 Use THRESH >= 12 to get rid of this warning


 Scale SEOQF with 1.000000e-02/1.000000e-01/1.000000e-01

 Standard Electronic Orientation quadrupole field applied
 Nucleus-field energy     =     0.0000000031 hartrees
 Guess from superposition of atomic densities
 Warning:  Energy on first SCF cycle will be non-variational
 SAD guess density has 52.000000 electrons

 -----------------------------------------------------------------------
  General SCF calculation program by
  Eric Jon Sundstrom, Paul Horn, Yuezhi Mao, Dmitri Zuev, Alec White,
  David Stuck, Shaama M.S., Shane Yost, Joonho Lee, David Small,
  Daniel Levine, Susi Lehtola, Hugh Burton, Evgeny Epifanovsky
 -----------------------------------------------------------------------
 Hartree-Fock
 using 6 threads for integral computing
 -------------------------------------------------------
 OpenMP Integral computing Module                
 Release: version 1.0, May 2013, Q-Chem Inc. Pittsburgh 
 -------------------------------------------------------
 A restricted SCF calculation will be
 performed using DIIS
 SCF converges when DIIS error is below 1.0e-05
 ---------------------------------------
  Cycle       Energy         DIIS error
 ---------------------------------------
    1    -732.2940101710      1.79e-02  
    2    -732.3140107446      2.48e-03  
    3    -732.3879225605      1.55e-03  
    4    -732.4162760412      2.02e-04  
    5    -732.4173844500      3.73e-05  
    6    -732.4174340897      7.53e-06  Convergence criterion met
 ---------------------------------------
 SCF time:   CPU 162.57s  wall 27.00s 
 SCF   energy in the final basis set =     -732.4174340897
 Total energy in the final basis set =     -732.4174340897
 
 Components of the MP2 correlation energy:
        aaaa  correlation energy =        -0.0811989685 au
        abab  correlation energy =        -0.6084542691 au
        bbbb  correlation energy =        -0.0811989685 au
        non-Brillouin singles    =        -0.0000000000 au

 Total  MP2   correlation energy =                    -0.77085221 au
        MP2         total energy =                  -733.18828630 au
 
 --------------------------------------------------------------
 
                    Orbital Energies (a.u.)
 --------------------------------------------------------------
 
 Alpha MOs
 -- Occupied --
-68.797 -68.797 -20.563 -20.563  -6.142  -6.142  -4.249  -4.249
 -4.249  -4.249  -4.248  -4.248  -1.344  -1.344  -0.759  -0.759
 -0.652  -0.652  -0.556  -0.556  -0.554  -0.554  -0.477  -0.477
 -0.459  -0.459
 -- Virtual --
  0.026   0.030   0.039   0.048   0.050   0.060   0.060   0.063
  0.069   0.070   0.076   0.077   0.085   0.098   0.119   0.131
  0.132   0.141   0.145   0.155   0.157   0.157   0.175   0.177
  0.182   0.191   0.194   0.195   0.205   0.214   0.214   0.218
  0.237   0.244   0.248   0.254   0.254   0.263   0.265   0.269
  0.272   0.282   0.282   0.295   0.305   0.308   0.317   0.321
  0.327   0.332   0.351   0.363   0.369   0.370   0.373   0.377
  0.387   0.397   0.398   0.402   0.415   0.423   0.434   0.438
  0.446   0.457   0.462   0.476   0.518   0.523   0.526   0.528
  0.536   0.542   0.568   0.578   0.584   0.585   0.588   0.593
  0.603   0.605   0.619   0.620   0.630   0.633   0.634   0.635
  0.652   0.657   0.662   0.668   0.669   0.677   0.678   0.688
  0.757   0.775   0.777   0.800   0.810   0.813   0.817   0.822
  0.852   0.859   0.867   0.873   0.917   0.918   0.927   0.951
  0.955   0.963   0.969   0.971   0.984   0.986   1.004   1.009
  1.013   1.017   1.027   1.033   1.042   1.044   1.056   1.063
  1.064   1.066   1.076   1.089   1.099   1.101   1.114   1.117
  1.155   1.161   1.174   1.177   1.178   1.186   1.192   1.193
  1.201   1.210   1.223   1.235   1.269   1.279   1.289   1.290
  1.297   1.299   1.306   1.307   1.347   1.348   1.350   1.354
  1.358   1.365   1.367   1.372   1.399   1.407   1.407   1.411
  1.427   1.433   1.443   1.443   1.452   1.459   1.492   1.494
  1.496   1.502   1.502   1.509   1.585   1.585   1.656   1.660
  1.731   1.736   1.737   1.740   1.801   1.808   1.874   1.875
  1.925   1.925   1.939   1.953   1.960   1.961   1.978   1.988
  1.992   1.997   2.031   2.037   2.054   2.055   2.142   2.142
  2.219   2.221   2.239   2.242   2.288   2.289   2.393   2.395
  2.416   2.417   2.427   2.429   2.486   2.487   2.576   2.577
  2.607   2.615   2.673   2.682   2.721   2.724   2.832   2.833
  2.884   2.884   3.032   3.036   3.071   3.072   3.109   3.116
  3.226   3.230   3.329   3.336   3.582   3.583   3.593   3.597
  3.685   3.691   3.887   3.889   3.981   3.981   3.986   3.989
  3.991   3.994   4.085   4.092   4.105   4.106   4.120   4.121
  4.130   4.130   4.170   4.172   4.188   4.189   4.198   4.205
  4.282   4.283   4.310   4.313   4.339   4.340   4.355   4.359
  4.396   4.398   4.430   4.432   4.470   4.476   4.516   4.520
  4.521   4.526   4.572   4.574   4.638   4.640   4.676   4.677
  4.750   4.753   4.754   4.755   4.806   4.806   4.808   4.811
  4.850   4.855   5.008   5.009   5.024   5.024   5.099   5.099
  5.147   5.149   5.400   5.404   5.445   5.445   5.675   5.675
  6.337   6.344   6.714   6.714   6.750   6.751   6.804   6.809
  6.854   6.854   7.210   7.212   7.253   7.254   7.280   7.280
  7.314   7.320   7.368   7.368   7.570   7.571   7.737   7.739
  8.090   8.102   8.941   8.967  14.843  14.862
 --------------------------------------------------------------
 
          Ground-State Mulliken Net Atomic Charges

     Atom                 Charge (a.u.)
  ----------------------------------------
      1 Si                    1.113574
      2 H                    -0.236966
      3 H                    -0.190651
      4 H                    -0.235785
      5 O                    -0.563049
      6 H                     0.112878
      7 Si                    1.113478
      8 H                    -0.236830
      9 H                    -0.190706
     10 H                    -0.235748
     11 O                    -0.563079
     12 H                     0.112881
  ----------------------------------------
  Sum of atomic charges =    -0.000004

 -----------------------------------------------------------------
                    Cartesian Multipole Moments
 -----------------------------------------------------------------
    Charge (ESU x 10^10)
                -0.0000
    Dipole Moment (Debye)
         X       0.0058      Y      -0.0066      Z      -2.1961
       Tot       2.1962
    Quadrupole Moments (Debye-Ang)
        XX     -50.8130     XY       9.2343     YY     -40.5747
        XZ      -0.0508     YZ       0.0098     ZZ     -41.2908
    Octopole Moments (Debye-Ang^2)
       XXX       0.5907    XXY      -0.1299    XYY      -0.2017
       YYY      -0.1479    XXZ     -71.2994    XYZ     -15.6188
       YYZ      -3.9835    XZZ       0.1275    YZZ       0.0029
       ZZZ      -1.8406
    Hexadecapole Moments (Debye-Ang^3)
      XXXX   -4445.3867   XXXY     308.1988   XXYY    -611.4996
      XYYY      36.6819   YYYY    -105.7549   XXXZ      -2.1648
      XXYZ       0.1005   XYYZ       0.2542   YYYZ       0.0231
      XXZZ    -633.4690   XYZZ      27.3699   YYZZ     -33.2513
      XZZZ      -0.3435   YZZZ       0.0140   ZZZZ     -93.5561
 -----------------------------------------------------------------
Archival summary:
1\1\gm4.localdomain\SP\MP2\BasisUnspecified\i228\xuedong\WedJul317:46:532019WedJul317:46:532019\0\\#,MP2,BasisUnspecified,\\0,1\Si\H,1,1.47164\H,1,1.48029,2,110.351\H,1,1.48325,2,109.909,3,118.624,0\O,1,1.65963,2,105.664,3,-121.048,0\H,5,0.958597,1,116.626,2,179.222,0\H,4,5.476,1,107.909,2,-64.2177,0\Si,7,1.4832,4,108.199,1,-159.493,0\H,8,1.4717,7,109.898,4,-64.5014,0\H,8,1.48027,7,107.696,4,55.7594,0\O,8,1.65962,7,111.423,4,178.725,0\H,11,0.958606,8,116.624,7,-61.7223,0\\HF=-732.417434\MP2=-733.188286\\@

 Total job time:  102.57s(wall), 600.40s(cpu) 
 Wed Jul  3 17:46:53 2019

        *************************************************************
        *                                                           *
        *  Thank you very much for using Q-Chem.  Have a nice day.  *
        *                                                           *
        *************************************************************



Running Job 2 of 3 ../qm_inp/SiH3OH_SiH3OH.con2.200.qcinp
qchem ../qm_inp/SiH3OH_SiH3OH.con2.200.qcinp_15128.1 /scratch/xuedong/qchem15128/ 1
/home/qwang/software/qchem5.1.2/exe/qcprog.exe_s ../qm_inp/SiH3OH_SiH3OH.con2.200.qcinp_15128.1 /scratch/xuedong/qchem15128/
Check license passed

                  Welcome to Q-Chem
     A Quantum Leap Into The Future Of Chemistry


 Q-Chem 5.1, Q-Chem, Inc., Pleasanton, CA (2018)

 Yihan Shao,  Zhengting Gan,  E. Epifanovsky,  A. T. B. Gilbert,  M. Wormit,  
 J. Kussmann,  A. W. Lange,  A. Behn,  Jia Deng,  Xintian Feng,  D. Ghosh,  
 M. Goldey,  P. R. Horn,  L. D. Jacobson,  I. Kaliman,  T. Kus,  A. Landau,  
 Jie Liu,  E. I. Proynov,  R. M. Richard,  R. P. Steele,  E. J. Sundstrom,  
 H. L. Woodcock III,  P. M. Zimmerman,  D. Zuev,  B. Albrecht,  E. Alguire,  
 S. A. Baeppler,  D. Barton,  Z. Benda,  Y. A. Bernard,  E. J. Berquist,  
 K. B. Bravaya,  H. Burton,  D. Casanova,  Chun-Min Chang,  Yunqing Chen,  
 A. Chien,  K. D. Closser,  M. P. Coons,  S. Coriani,  S. Dasgupta,  
 A. L. Dempwolff,  M. Diedenhofen,  Hainam Do,  R. G. Edgar,  Po-Tung Fang,  
 S. Faraji,  S. Fatehi,  Qingguo Feng,  K. D. Fenk,  J. Fosso-Tande,  
 J. Gayvert,  Qinghui Ge,  A. Ghysels,  G. Gidofalvi,  J. Gomes,  
 J. Gonthier,  A. Gunina,  D. Hait,  M. W. D. Hanson-Heine,  
 P. H. P. Harbach,  A. W. Hauser,  J. E. Herr,  E. G. Hohenstein,  
 Z. C. Holden,  Kerwin Hui,  B. C. Huynh,  T.-C. Jagau,  Hyunjun Ji,  
 B. Kaduk,  K. Khistyaev,  Jaehoon Kim,  P. Klunzinger,  K. Koh,  
 D. Kosenkov,  L. Koulias,  T. Kowalczyk,  C. M. Krauter,  A. Kunitsa,  
 Ka Un Lao,  A. Laurent,  K. V. Lawler,  Joonho Lee,  D. Lefrancois,  
 S. Lehtola,  D. S. Levine,  Yi-Pei Li,  You-Sheng Lin,  Fenglai Liu,  
 E. Livshits,  A. Luenser,  P. Manohar,  E. Mansoor,  S. F. Manzer,  
 Shan-Ping Mao,  Yuezhi Mao,  N. Mardirossian,  A. V. Marenich,  
 T. Markovich,  L. A. Martinez-Martinez,  S. A. Maurer,  N. J. Mayhall,  
 S. C. McKenzie,  J.-M. Mewes,  A. F. Morrison,  J. W. Mullinax,  K. Nanda,  
 T. S. Nguyen-Beck,  R. Olivares-Amaya,  J. A. Parkhill,  T. M. Perrine,  
 F. Plasser,  P. Pokhilko,  S. Prager,  A. Prociuk,  E. Ramos,  D. R. Rehn,  
 F. Rob,  M. Schneider,  N. Sergueev,  S. M. Sharada,  S. Sharma,  
 D. W. Small,  T. Stauch,  T. Stein,  Yu-Chuan Su,  A. J. W. Thom,  
 A. Tkatchenko,  T. Tsuchimochi,  N. M. Tubman,  L. Vogt,  M. L. Vidal,  
 O. Vydrov,  M. A. Watson,  J. Wenzel,  M. de Wergifosse,  T. A. Wesolowski,  
 A. White,  J. Witte,  A. Yamada,  Jun Yang,  K. Yao,  S. Yeganeh,  
 S. R. Yost,  Zhi-Qiang You,  A. Zech,  Igor Ying Zhang,  Xing Zhang,  
 Yan Zhao,  Ying Zhu,  B. R. Brooks,  G. K. L. Chan,  C. J. Cramer,  
 M. S. Gordon,  W. J. Hehre,  A. Klamt,  M. W. Schmidt,  C. D. Sherrill,  
 D. G. Truhlar,  A. Aspuru-Guzik,  R. Baer,  A. T. Bell,  N. A. Besley,  
 Jeng-Da Chai,  A. E. DePrince, III,  R. A. DiStasio Jr.,  A. Dreuw,  
 B. D. Dunietz,  T. R. Furlani,  Chao-Ping Hsu,  Yousung Jung,  Jing Kong,  
 D. S. Lambrecht,  WanZhen Liang,  C. Ochsenfeld,  V. A. Rassolov,  
 L. V. Slipchenko,  J. E. Subotnik,  T. Van Voorhis,  J. M. Herbert,  
 A. I. Krylov,  P. M. W. Gill,  M. Head-Gordon

 Contributors to earlier versions of Q-Chem not listed above: 
 R. D. Adamson,  B. Austin,  J. Baker,  G. J. O. Beran,  K. Brandhorst,  
 S. T. Brown,  E. F. C. Byrd,  A. K. Chakraborty,  C.-L. Cheng,  
 Siu Hung Chien,  D. M. Chipman,  D. L. Crittenden,  H. Dachsel,  
 R. J. Doerksen,  A. D. Dutoi,  L. Fusti-Molnar,  W. A. Goddard III,  
 A. Golubeva-Zadorozhnaya,  S. R. Gwaltney,  G. Hawkins,  A. Heyden,  
 S. Hirata,  G. Kedziora,  F. J. Keil,  C. Kelley,  Jihan Kim,  R. A. King,  
 R. Z. Khaliullin,  P. P. Korambath,  W. Kurlancheek,  A. M. Lee,  M. S. Lee,  
 S. V. Levchenko,  Ching Yeh Lin,  D. Liotard,  R. C. Lochan,  I. Lotan,  
 P. E. Maslen,  N. Nair,  D. P. O'Neill,  D. Neuhauser,  E. Neuscamman,  
 C. M. Oana,  R. Olson,  B. Peters,  R. Peverati,  P. A. Pieniazek,  
 Y. M. Rhee,  J. Ritchie,  M. A. Rohrdanz,  E. Rosta,  N. J. Russ,  
 H. F. Schaefer III,  N. E. Schultz,  N. Shenvi,  A. C. Simmonett,  A. Sodt,  
 D. Stuck,  K. S. Thanthiriwatte,  V. Vanovschi,  Tao Wang,  A. Warshel,  
 C. F. Williams,  Q. Wu,  X. Xu,  W. Zhang

 Please cite Q-Chem as follows:
 Y. Shao et al., Mol. Phys. 113, 184-215 (2015)
 DOI: 10.1080/00268976.2014.952696

 Q-Chem 5.1.2 for Intel X86 EM64T Linux

 Parts of Q-Chem use Armadillo 8.300.2 (Tropical Shenanigans).
 http://arma.sourceforge.net/

 Q-Chem begins on Wed Jul  3 17:46:54 2019  

Host: 
0

     Scratch files written to /scratch/xuedong/qchem15128//
 Dec218 |scratch|qcdevops|jenkins|workspace|build_RNUM 6581   
Processing $rem in /home/qwang/software/qchem5.1.2/config/preferences.
 MEM_TOTAL  4000 
Core orbitals will be frozen
Input Ideriv = 1
Curr. Ideriv = -1
Max.  Ideriv = 1

Checking the input file for inconsistencies... 	...done.

--------------------------------------------------------------
User input:
--------------------------------------------------------------

$molecule
0 1
Si    1.877277124    -0.264555006    -0.002147324
H     1.013054241     0.893525003     0.332506176
H     1.752218881    -1.299809326     1.036281626
H     1.434006711    -0.793004013    -1.311922261
O     3.481273335     0.161191906    -0.019552128
H     3.741996224     0.827557153    -0.657431446
@Si   -5.063597322     0.386312322     0.055582568
@H    -4.192495234    -0.802532295     0.222023395
@H    -4.943641375     1.263683327     1.231049476
@H    -4.624546992     1.098397760    -1.165639175
@O    -6.665140687    -0.041837632    -0.022412071
@H    -6.923267596    -0.608735366    -0.751056161
$end

$rem
BASIS = aug-cc-pVTZ
JOB_TYPE  =  SP
METHOD  =  MP2
SCF_MAX_CYCLES  =  200
$end

--------------------------------------------------------------
 ----------------------------------------------------------------
             Standard Nuclear Orientation (Angstroms)
    I     Atom           X                Y                Z
 ----------------------------------------------------------------
    1      Si      1.8772771240    -0.2645550060    -0.0021473240
    2      H       1.0130542410     0.8935250030     0.3325061760
    3      H       1.7522188810    -1.2998093260     1.0362816260
    4      H       1.4340067110    -0.7930040130    -1.3119222610
    5      O       3.4812733350     0.1611919060    -0.0195521280
    6      H       3.7419962240     0.8275571530    -0.6574314460
    7      GH     -5.0635973220     0.3863123220     0.0555825680
    8      GH     -4.1924952340    -0.8025322950     0.2220233950
    9      GH     -4.9436413750     1.2636833270     1.2310494760
   10      GH     -4.6245469920     1.0983977600    -1.1656391750
   11      GH     -6.6651406870    -0.0418376320    -0.0224120710
   12      GH     -6.9232675960    -0.6087353660    -0.7510561610
 ----------------------------------------------------------------
 Nuclear Repulsion Energy =    64.5733844740 hartrees
 There are       13 alpha and       13 beta electrons
 Requested basis set is aug-cc-pVTZ
 There are 132 shells and 376 basis functions

 Total QAlloc Memory Limit   4000 MB
 Mega-Array Size       188 MB
 MEM_STATIC part       192 MB

                       Distance Matrix (Angstroms)
             Si(  1)   H (  2)   H (  3)   H (  4)   O (  5)   H (  6)
   H (  2)  1.483248
   H (  3)  1.471640  2.419169
   H (  4)  1.480290  2.392849  2.423257
   O (  5)  1.659629  2.598531  2.497787  2.602309
   H (  6)  2.258159  2.903696  3.369505  2.895063  0.958597
   GH(  7)  6.971564  6.104068  7.089438  6.743865  8.548166  8.845426
   GH(  8)  6.097689  5.475999  6.020791  5.831861  7.737819  8.147809
   GH(  9)  7.097973  6.035447  7.172445  7.167361  8.588287  8.899262
   GH( 10)  6.744262  5.836862  7.159818  6.348612  8.239915  8.386339
   GH( 11)  8.545345  7.743097  8.576437  8.235489 10.148446 10.462676
   GH( 12)  8.839056  8.149607  8.884606  8.378100 10.458602 10.761949
             GH(  7)   GH(  8)   GH(  9)   GH( 10)   GH( 11)
   GH(  8)  1.483197
   GH(  9)  1.471697  2.419008
   GH( 10)  1.480275  2.392867  2.423480
   GH( 11)  1.659619  2.598534  2.497821  2.602139
   GH( 12)  2.258132  2.905436  3.369513  2.893147  0.958606
 
 A cutoff of  1.0D-08 yielded   5875 shell pairs
 There are     44185 function pairs (     56512 Cartesian)
 
 -------------------------------------------------------
 OpenMP Integral Computing Module                       
 Release: version 1.0, May 2013, Q-Chem Inc. Pittsburgh 
 -------------------------------------------------------
 Integral Job Info:
 Integral job number is                      11
 Integral operator is                         1
 short-range coefficients                     0
 long-range coefficients              100000000
 Omega coefficients                           0
 if combine SR and LR in K                    0
 Integral screening is                        0
 Integral computing path is                   2
 max size of driver memory is            800000
 size of driver memory is                776718
 size of scratch memory is             29531563
 max col of scratch BK array              10000
 max len of scratch array in speh3          662
 max len of scratch index in speh4           32
 max int batch size is                      520
 min int batch size is                       52
 fixed nKL is                                31
 max L of basis functions is                  3
 order of int derivative is                   0
 number of shells is                        132
 number of basis is                         428
 number of cartesian basis is               428
 number of contracted shell pairs          5875
 number of primitive shell pairs          19625
 maxK2 (contraction) of shell pair          169
 max number of K2 of shell pair               1
 max number of CS2 of shell pair           1050
 max number of PS2 of shell pair           2028
 mem total for path MDJ                  637296
 -------------------------------------------------------
 Smallest overlap matrix eigenvalue = 3.29E-05

 Q-Chem warning in module stvman/mkSTV.C, line 306:

 Overlap eigenvalue is smaller than square root of threshold
 Use THRESH >= 12 to get rid of this warning


 Scale SEOQF with 1.000000e-02/1.000000e-01/1.000000e-01

 Standard Electronic Orientation quadrupole field applied
 Nucleus-field energy     =     0.0000000006 hartrees
 Guess from superposition of atomic densities
 Warning:  Energy on first SCF cycle will be non-variational
 SAD guess density has 26.000000 electrons

 -----------------------------------------------------------------------
  General SCF calculation program by
  Eric Jon Sundstrom, Paul Horn, Yuezhi Mao, Dmitri Zuev, Alec White,
  David Stuck, Shaama M.S., Shane Yost, Joonho Lee, David Small,
  Daniel Levine, Susi Lehtola, Hugh Burton, Evgeny Epifanovsky
 -----------------------------------------------------------------------
 Hartree-Fock
 using 6 threads for integral computing
 -------------------------------------------------------
 OpenMP Integral computing Module                
 Release: version 1.0, May 2013, Q-Chem Inc. Pittsburgh 
 -------------------------------------------------------
 A restricted SCF calculation will be
 performed using DIIS
 SCF converges when DIIS error is below 1.0e-05
 ---------------------------------------
  Cycle       Energy         DIIS error
 ---------------------------------------
    1    -366.1469911982      1.26e-02  
    2    -366.1570681595      1.75e-03  
    3    -366.1940301244      1.09e-03  
    4    -366.2081444234      1.43e-04  
    5    -366.2086975707      2.63e-05  
    6    -366.2087223206      5.32e-06  Convergence criterion met
 ---------------------------------------
 SCF time:   CPU 141.03s  wall 23.00s 
 SCF   energy in the final basis set =     -366.2087223206
 Total energy in the final basis set =     -366.2087223206
 
 Components of the MP2 correlation energy:
        aaaa  correlation energy =        -0.0405898616 au
        abab  correlation energy =        -0.3042062086 au
        bbbb  correlation energy =        -0.0405898616 au
        non-Brillouin singles    =        -0.0000000000 au

 Total  MP2   correlation energy =                    -0.38538593 au
        MP2         total energy =                  -366.59410825 au
 
 --------------------------------------------------------------
 
                    Orbital Energies (a.u.)
 --------------------------------------------------------------
 
 Alpha MOs
 -- Occupied --
-68.797 -20.563  -6.141  -4.248  -4.248  -4.248  -1.343  -0.759
 -0.651  -0.555  -0.553  -0.476  -0.458
 -- Virtual --
  0.020   0.030   0.042   0.045   0.046   0.057   0.059   0.064
  0.067   0.072   0.075   0.079   0.085   0.090   0.098   0.127
  0.134   0.140   0.151   0.158   0.158   0.168   0.171   0.176
  0.180   0.181   0.192   0.199   0.203   0.208   0.213   0.220
  0.230   0.233   0.242   0.245   0.252   0.258   0.269   0.273
  0.279   0.284   0.302   0.306   0.308   0.319   0.320   0.329
  0.335   0.360   0.368   0.372   0.375   0.384   0.390   0.391
  0.393   0.398   0.406   0.412   0.418   0.428   0.435   0.441
  0.452   0.457   0.459   0.473   0.482   0.494   0.517   0.526
  0.531   0.539   0.579   0.587   0.592   0.595   0.604   0.611
  0.623   0.632   0.633   0.634   0.643   0.650   0.662   0.670
  0.674   0.684   0.692   0.713   0.728   0.743   0.756   0.774
  0.778   0.784   0.804   0.812   0.817   0.826   0.829   0.856
  0.868   0.874   0.909   0.915   0.917   0.924   0.938   0.947
  0.950   0.960   0.968   0.979   0.985   0.989   1.008   1.012
  1.014   1.030   1.044   1.051   1.055   1.061   1.071   1.077
  1.084   1.090   1.101   1.109   1.117   1.120   1.132   1.138
  1.149   1.164   1.170   1.179   1.187   1.194   1.207   1.211
  1.228   1.247   1.250   1.271   1.277   1.290   1.298   1.300
  1.310   1.311   1.331   1.342   1.349   1.352   1.359   1.365
  1.369   1.376   1.399   1.405   1.414   1.431   1.443   1.452
  1.473   1.495   1.495   1.501   1.509   1.518   1.554   1.572
  1.584   1.641   1.655   1.659   1.687   1.734   1.737   1.745
  1.803   1.815   1.824   1.832   1.842   1.876   1.882   1.886
  1.897   1.928   1.946   1.961   1.963   1.985   1.995   2.035
  2.055   2.108   2.125   2.143   2.220   2.241   2.252   2.260
  2.288   2.296   2.305   2.359   2.364   2.387   2.395   2.417
  2.429   2.487   2.533   2.565   2.577   2.604   2.612   2.654
  2.677   2.723   2.734   2.765   2.830   2.833   2.865   2.884
  2.916   2.936   3.007   3.035   3.073   3.113   3.182   3.216
  3.229   3.251   3.333   3.343   3.401   3.404   3.584   3.595
  3.649   3.688   3.730   3.746   3.780   3.889   3.982   3.988
  3.993   4.052   4.090   4.106   4.121   4.131   4.172   4.189
  4.201   4.238   4.246   4.253   4.283   4.312   4.340   4.347
  4.356   4.357   4.375   4.398   4.411   4.432   4.433   4.473
  4.475   4.492   4.511   4.519   4.524   4.573   4.598   4.606
  4.619   4.635   4.642   4.656   4.678   4.711   4.728   4.753
  4.755   4.807   4.810   4.853   4.902   4.929   5.010   5.024
  5.071   5.078   5.081   5.099   5.148   5.151   5.199   5.271
  5.312   5.327   5.403   5.439   5.445   5.455   5.675   5.688
  5.916   5.975   6.015   6.066   6.294   6.341   6.715   6.751
  6.807   6.855   6.868   7.211   7.254   7.281   7.318   7.368
  7.571   7.664   7.695   7.739   7.793   7.838   8.097   8.220
  8.317   8.565   8.954   9.703   9.850   9.969  10.011  10.495
 11.680  11.987  12.066  13.700  14.790  14.855  20.267  20.338
 20.756  63.242 106.941
 --------------------------------------------------------------
 
          Ground-State Mulliken Net Atomic Charges

     Atom                 Charge (a.u.)
  ----------------------------------------
      1 Si                    1.113981
      2 H                    -0.236526
      3 H                    -0.191084
      4 H                    -0.235523
      5 O                    -0.563263
      6 H                     0.112818
      7 GH                   -0.000361
      8 GH                   -0.000220
      9 GH                    0.000066
     10 GH                    0.000110
     11 GH                    0.000002
     12 GH                   -0.000001
  ----------------------------------------
  Sum of atomic charges =    -0.000002

 -----------------------------------------------------------------
                    Cartesian Multipole Moments
 -----------------------------------------------------------------
    Charge (ESU x 10^10)
                -0.0000
    Dipole Moment (Debye)
         X      -0.3876      Y       0.8515      Z      -1.0428
       Tot       1.4010
    Quadrupole Moments (Debye-Ang)
        XX     -23.9154     XY       3.8502     YY     -20.2775
        XZ      -4.3599     YZ      -1.4219     ZZ     -20.8060
    Octopole Moments (Debye-Ang^2)
       XXX    -158.1599    XXY      18.0874    XYY     -43.1599
       YYY      10.3477    XXZ     -16.7782    XYZ      -4.8508
       YYZ      -1.2834    XZZ     -45.1158    YZZ       5.1221
       ZZZ       1.5871
    Hexadecapole Moments (Debye-Ang^3)
      XXXX    -824.0395   XXXY      71.1652   XXYY    -116.4448
      XYYY      15.5274   YYYY     -53.6802   XXXZ     -62.7660
      XXYZ     -17.8963   XYYZ      -4.1270   YYYZ      -0.0592
      XXZZ    -122.9660   XYZZ       9.0058   YYZZ     -16.8525
      XZZZ       3.1903   YZZZ      -0.5564   ZZZZ     -46.8810
 -----------------------------------------------------------------
Archival summary:
1\1\gm4.localdomain\SP\MP2\BasisUnspecified\i114h6\xuedong\WedJul317:48:242019WedJul317:48:242019\0\\#,MP2,BasisUnspecified,\\0,1\Si\H,1,1.47164\H,1,1.48029,2,110.351\H,1,1.48325,2,109.909,3,118.624,0\O,1,1.65963,2,105.664,3,-121.048,0\H,5,0.958597,1,116.626,2,179.222,0\Gh,4,5.476,1,107.909,2,-64.2177,0\Gh,7,1.4832,4,108.199,1,-159.493,0\Gh,8,1.4717,7,109.898,4,-64.5014,0\Gh,8,1.48027,7,107.696,4,55.7594,0\Gh,8,1.65962,7,111.423,4,178.725,0\Gh,11,0.958606,8,116.624,7,-61.7223,0\\HF=-366.208722\MP2=-366.594108\\@

 Total job time:  90.37s(wall), 538.22s(cpu) 
 Wed Jul  3 17:48:24 2019

        *************************************************************
        *                                                           *
        *  Thank you very much for using Q-Chem.  Have a nice day.  *
        *                                                           *
        *************************************************************



Running Job 3 of 3 ../qm_inp/SiH3OH_SiH3OH.con2.200.qcinp
qchem ../qm_inp/SiH3OH_SiH3OH.con2.200.qcinp_15128.2 /scratch/xuedong/qchem15128/ 1
/home/qwang/software/qchem5.1.2/exe/qcprog.exe_s ../qm_inp/SiH3OH_SiH3OH.con2.200.qcinp_15128.2 /scratch/xuedong/qchem15128/
Check license passed

                  Welcome to Q-Chem
     A Quantum Leap Into The Future Of Chemistry


 Q-Chem 5.1, Q-Chem, Inc., Pleasanton, CA (2018)

 Yihan Shao,  Zhengting Gan,  E. Epifanovsky,  A. T. B. Gilbert,  M. Wormit,  
 J. Kussmann,  A. W. Lange,  A. Behn,  Jia Deng,  Xintian Feng,  D. Ghosh,  
 M. Goldey,  P. R. Horn,  L. D. Jacobson,  I. Kaliman,  T. Kus,  A. Landau,  
 Jie Liu,  E. I. Proynov,  R. M. Richard,  R. P. Steele,  E. J. Sundstrom,  
 H. L. Woodcock III,  P. M. Zimmerman,  D. Zuev,  B. Albrecht,  E. Alguire,  
 S. A. Baeppler,  D. Barton,  Z. Benda,  Y. A. Bernard,  E. J. Berquist,  
 K. B. Bravaya,  H. Burton,  D. Casanova,  Chun-Min Chang,  Yunqing Chen,  
 A. Chien,  K. D. Closser,  M. P. Coons,  S. Coriani,  S. Dasgupta,  
 A. L. Dempwolff,  M. Diedenhofen,  Hainam Do,  R. G. Edgar,  Po-Tung Fang,  
 S. Faraji,  S. Fatehi,  Qingguo Feng,  K. D. Fenk,  J. Fosso-Tande,  
 J. Gayvert,  Qinghui Ge,  A. Ghysels,  G. Gidofalvi,  J. Gomes,  
 J. Gonthier,  A. Gunina,  D. Hait,  M. W. D. Hanson-Heine,  
 P. H. P. Harbach,  A. W. Hauser,  J. E. Herr,  E. G. Hohenstein,  
 Z. C. Holden,  Kerwin Hui,  B. C. Huynh,  T.-C. Jagau,  Hyunjun Ji,  
 B. Kaduk,  K. Khistyaev,  Jaehoon Kim,  P. Klunzinger,  K. Koh,  
 D. Kosenkov,  L. Koulias,  T. Kowalczyk,  C. M. Krauter,  A. Kunitsa,  
 Ka Un Lao,  A. Laurent,  K. V. Lawler,  Joonho Lee,  D. Lefrancois,  
 S. Lehtola,  D. S. Levine,  Yi-Pei Li,  You-Sheng Lin,  Fenglai Liu,  
 E. Livshits,  A. Luenser,  P. Manohar,  E. Mansoor,  S. F. Manzer,  
 Shan-Ping Mao,  Yuezhi Mao,  N. Mardirossian,  A. V. Marenich,  
 T. Markovich,  L. A. Martinez-Martinez,  S. A. Maurer,  N. J. Mayhall,  
 S. C. McKenzie,  J.-M. Mewes,  A. F. Morrison,  J. W. Mullinax,  K. Nanda,  
 T. S. Nguyen-Beck,  R. Olivares-Amaya,  J. A. Parkhill,  T. M. Perrine,  
 F. Plasser,  P. Pokhilko,  S. Prager,  A. Prociuk,  E. Ramos,  D. R. Rehn,  
 F. Rob,  M. Schneider,  N. Sergueev,  S. M. Sharada,  S. Sharma,  
 D. W. Small,  T. Stauch,  T. Stein,  Yu-Chuan Su,  A. J. W. Thom,  
 A. Tkatchenko,  T. Tsuchimochi,  N. M. Tubman,  L. Vogt,  M. L. Vidal,  
 O. Vydrov,  M. A. Watson,  J. Wenzel,  M. de Wergifosse,  T. A. Wesolowski,  
 A. White,  J. Witte,  A. Yamada,  Jun Yang,  K. Yao,  S. Yeganeh,  
 S. R. Yost,  Zhi-Qiang You,  A. Zech,  Igor Ying Zhang,  Xing Zhang,  
 Yan Zhao,  Ying Zhu,  B. R. Brooks,  G. K. L. Chan,  C. J. Cramer,  
 M. S. Gordon,  W. J. Hehre,  A. Klamt,  M. W. Schmidt,  C. D. Sherrill,  
 D. G. Truhlar,  A. Aspuru-Guzik,  R. Baer,  A. T. Bell,  N. A. Besley,  
 Jeng-Da Chai,  A. E. DePrince, III,  R. A. DiStasio Jr.,  A. Dreuw,  
 B. D. Dunietz,  T. R. Furlani,  Chao-Ping Hsu,  Yousung Jung,  Jing Kong,  
 D. S. Lambrecht,  WanZhen Liang,  C. Ochsenfeld,  V. A. Rassolov,  
 L. V. Slipchenko,  J. E. Subotnik,  T. Van Voorhis,  J. M. Herbert,  
 A. I. Krylov,  P. M. W. Gill,  M. Head-Gordon

 Contributors to earlier versions of Q-Chem not listed above: 
 R. D. Adamson,  B. Austin,  J. Baker,  G. J. O. Beran,  K. Brandhorst,  
 S. T. Brown,  E. F. C. Byrd,  A. K. Chakraborty,  C.-L. Cheng,  
 Siu Hung Chien,  D. M. Chipman,  D. L. Crittenden,  H. Dachsel,  
 R. J. Doerksen,  A. D. Dutoi,  L. Fusti-Molnar,  W. A. Goddard III,  
 A. Golubeva-Zadorozhnaya,  S. R. Gwaltney,  G. Hawkins,  A. Heyden,  
 S. Hirata,  G. Kedziora,  F. J. Keil,  C. Kelley,  Jihan Kim,  R. A. King,  
 R. Z. Khaliullin,  P. P. Korambath,  W. Kurlancheek,  A. M. Lee,  M. S. Lee,  
 S. V. Levchenko,  Ching Yeh Lin,  D. Liotard,  R. C. Lochan,  I. Lotan,  
 P. E. Maslen,  N. Nair,  D. P. O'Neill,  D. Neuhauser,  E. Neuscamman,  
 C. M. Oana,  R. Olson,  B. Peters,  R. Peverati,  P. A. Pieniazek,  
 Y. M. Rhee,  J. Ritchie,  M. A. Rohrdanz,  E. Rosta,  N. J. Russ,  
 H. F. Schaefer III,  N. E. Schultz,  N. Shenvi,  A. C. Simmonett,  A. Sodt,  
 D. Stuck,  K. S. Thanthiriwatte,  V. Vanovschi,  Tao Wang,  A. Warshel,  
 C. F. Williams,  Q. Wu,  X. Xu,  W. Zhang

 Please cite Q-Chem as follows:
 Y. Shao et al., Mol. Phys. 113, 184-215 (2015)
 DOI: 10.1080/00268976.2014.952696

 Q-Chem 5.1.2 for Intel X86 EM64T Linux

 Parts of Q-Chem use Armadillo 8.300.2 (Tropical Shenanigans).
 http://arma.sourceforge.net/

 Q-Chem begins on Wed Jul  3 17:48:24 2019  

Host: 
0

     Scratch files written to /scratch/xuedong/qchem15128//
 Dec218 |scratch|qcdevops|jenkins|workspace|build_RNUM 6581   
Processing $rem in /home/qwang/software/qchem5.1.2/config/preferences.
 MEM_TOTAL  4000 
Core orbitals will be frozen
Input Ideriv = 1
Curr. Ideriv = -1
Max.  Ideriv = 1

Checking the input file for inconsistencies... 	...done.

--------------------------------------------------------------
User input:
--------------------------------------------------------------

$molecule
0 1
@Si    1.877277124    -0.264555006    -0.002147324
@H     1.013054241     0.893525003     0.332506176
@H     1.752218881    -1.299809326     1.036281626
@H     1.434006711    -0.793004013    -1.311922261
@O     3.481273335     0.161191906    -0.019552128
@H     3.741996224     0.827557153    -0.657431446
Si   -5.063597322     0.386312322     0.055582568
H    -4.192495234    -0.802532295     0.222023395
H    -4.943641375     1.263683327     1.231049476
H    -4.624546992     1.098397760    -1.165639175
O    -6.665140687    -0.041837632    -0.022412071
H    -6.923267596    -0.608735366    -0.751056161
$end

$rem
BASIS = aug-cc-pVTZ
JOB_TYPE  =  SP
METHOD  =  MP2
SCF_MAX_CYCLES  =  200
$end



--------------------------------------------------------------
 ----------------------------------------------------------------
             Standard Nuclear Orientation (Angstroms)
    I     Atom           X                Y                Z
 ----------------------------------------------------------------
    1      GH      1.8772771240    -0.2645550060    -0.0021473240
    2      GH      1.0130542410     0.8935250030     0.3325061760
    3      GH      1.7522188810    -1.2998093260     1.0362816260
    4      GH      1.4340067110    -0.7930040130    -1.3119222610
    5      GH      3.4812733350     0.1611919060    -0.0195521280
    6      GH      3.7419962240     0.8275571530    -0.6574314460
    7      Si     -5.0635973220     0.3863123220     0.0555825680
    8      H      -4.1924952340    -0.8025322950     0.2220233950
    9      H      -4.9436413750     1.2636833270     1.2310494760
   10      H      -4.6245469920     1.0983977600    -1.1656391750
   11      O      -6.6651406870    -0.0418376320    -0.0224120710
   12      H      -6.9232675960    -0.6087353660    -0.7510561610
 ----------------------------------------------------------------
 Nuclear Repulsion Energy =    64.5736976857 hartrees
 There are       13 alpha and       13 beta electrons
 Requested basis set is aug-cc-pVTZ
 There are 132 shells and 376 basis functions

 Total QAlloc Memory Limit   4000 MB
 Mega-Array Size       188 MB
 MEM_STATIC part       192 MB

                       Distance Matrix (Angstroms)
             GH(  1)   GH(  2)   GH(  3)   GH(  4)   GH(  5)   GH(  6)
   GH(  2)  1.483248
   GH(  3)  1.471640  2.419169
   GH(  4)  1.480290  2.392849  2.423257
   GH(  5)  1.659629  2.598531  2.497787  2.602309
   GH(  6)  2.258159  2.903696  3.369505  2.895063  0.958597
   Si(  7)  6.971564  6.104068  7.089438  6.743865  8.548166  8.845426
   H (  8)  6.097689  5.475999  6.020791  5.831861  7.737819  8.147809
   H (  9)  7.097973  6.035447  7.172445  7.167361  8.588287  8.899262
   H ( 10)  6.744262  5.836862  7.159818  6.348612  8.239915  8.386339
   O ( 11)  8.545345  7.743097  8.576437  8.235489 10.148446 10.462676
   H ( 12)  8.839056  8.149607  8.884606  8.378100 10.458602 10.761949
             Si(  7)   H (  8)   H (  9)   H ( 10)   O ( 11)
   H (  8)  1.483197
   H (  9)  1.471697  2.419008
   H ( 10)  1.480275  2.392867  2.423480
   O ( 11)  1.659619  2.598534  2.497821  2.602139
   H ( 12)  2.258132  2.905436  3.369513  2.893147  0.958606
 
 A cutoff of  1.0D-08 yielded   5875 shell pairs
 There are     44185 function pairs (     56512 Cartesian)
 
 -------------------------------------------------------
 OpenMP Integral Computing Module                       
 Release: version 1.0, May 2013, Q-Chem Inc. Pittsburgh 
 -------------------------------------------------------
 Integral Job Info:
 Integral job number is                      11
 Integral operator is                         1
 short-range coefficients                     0
 long-range coefficients              100000000
 Omega coefficients                           0
 if combine SR and LR in K                    0
 Integral screening is                        0
 Integral computing path is                   2
 max size of driver memory is            800000
 size of driver memory is                776718
 size of scratch memory is             29531563
 max col of scratch BK array              10000
 max len of scratch array in speh3          662
 max len of scratch index in speh4           32
 max int batch size is                      520
 min int batch size is                       52
 fixed nKL is                                31
 max L of basis functions is                  3
 order of int derivative is                   0
 number of shells is                        132
 number of basis is                         428
 number of cartesian basis is               428
 number of contracted shell pairs          5875
 number of primitive shell pairs          19625
 maxK2 (contraction) of shell pair          169
 max number of K2 of shell pair               1
 max number of CS2 of shell pair           1050
 max number of PS2 of shell pair           2028
 mem total for path MDJ                  637296
 -------------------------------------------------------
 Smallest overlap matrix eigenvalue = 3.29E-05

 Q-Chem warning in module stvman/mkSTV.C, line 306:

 Overlap eigenvalue is smaller than square root of threshold
 Use THRESH >= 12 to get rid of this warning


 Scale SEOQF with 1.000000e-02/1.000000e-01/1.000000e-01

 Standard Electronic Orientation quadrupole field applied
 Nucleus-field energy     =     0.0000000030 hartrees
 Guess from superposition of atomic densities
 Warning:  Energy on first SCF cycle will be non-variational
 SAD guess density has 26.000000 electrons

 -----------------------------------------------------------------------
  General SCF calculation program by
  Eric Jon Sundstrom, Paul Horn, Yuezhi Mao, Dmitri Zuev, Alec White,
  David Stuck, Shaama M.S., Shane Yost, Joonho Lee, David Small,
  Daniel Levine, Susi Lehtola, Hugh Burton, Evgeny Epifanovsky
 -----------------------------------------------------------------------
 Hartree-Fock
 using 6 threads for integral computing
 -------------------------------------------------------
 OpenMP Integral computing Module                
 Release: version 1.0, May 2013, Q-Chem Inc. Pittsburgh 
 -------------------------------------------------------
 A restricted SCF calculation will be
 performed using DIIS
 SCF converges when DIIS error is below 1.0e-05
 ---------------------------------------
  Cycle       Energy         DIIS error
 ---------------------------------------
    1    -366.1470035141      1.26e-02  
    2    -366.1570659289      1.75e-03  
    3    -366.1940290018      1.09e-03  
    4    -366.2081440206      1.43e-04  
    5    -366.2086971714      2.63e-05  
    6    -366.2087219216      5.32e-06  Convergence criterion met
 ---------------------------------------
 SCF time:   CPU 140.66s  wall 24.00s 
 SCF   energy in the final basis set =     -366.2087219216
 Total energy in the final basis set =     -366.2087219216
 
 Components of the MP2 correlation energy:
        aaaa  correlation energy =        -0.0405898679 au
        abab  correlation energy =        -0.3042061801 au
        bbbb  correlation energy =        -0.0405898679 au
        non-Brillouin singles    =        -0.0000000000 au

 Total  MP2   correlation energy =                    -0.38538592 au
        MP2         total energy =                  -366.59410784 au
 
 --------------------------------------------------------------
 
                    Orbital Energies (a.u.)
 --------------------------------------------------------------
 
 Alpha MOs
 -- Occupied --
-68.797 -20.563  -6.141  -4.248  -4.248  -4.248  -1.343  -0.759
 -0.651  -0.555  -0.553  -0.476  -0.458
 -- Virtual --
  0.020   0.030   0.042   0.045   0.046   0.057   0.059   0.064
  0.067   0.072   0.075   0.079   0.085   0.090   0.098   0.127
  0.134   0.140   0.151   0.158   0.158   0.167   0.171   0.176
  0.180   0.181   0.192   0.199   0.203   0.208   0.213   0.220
  0.230   0.233   0.242   0.245   0.252   0.258   0.269   0.273
  0.279   0.284   0.302   0.306   0.308   0.319   0.320   0.329
  0.335   0.360   0.368   0.372   0.376   0.384   0.390   0.391
  0.393   0.398   0.405   0.412   0.418   0.428   0.435   0.442
  0.452   0.457   0.459   0.473   0.482   0.494   0.517   0.526
  0.531   0.539   0.579   0.587   0.592   0.595   0.604   0.611
  0.623   0.632   0.633   0.634   0.643   0.650   0.662   0.670
  0.674   0.684   0.692   0.712   0.729   0.743   0.756   0.774
  0.778   0.784   0.805   0.812   0.817   0.826   0.829   0.856
  0.868   0.874   0.909   0.915   0.917   0.924   0.938   0.947
  0.950   0.960   0.967   0.979   0.985   0.989   1.008   1.012
  1.014   1.030   1.044   1.051   1.055   1.061   1.070   1.077
  1.084   1.090   1.101   1.109   1.117   1.120   1.132   1.138
  1.149   1.164   1.171   1.179   1.188   1.194   1.207   1.211
  1.228   1.247   1.250   1.271   1.277   1.290   1.298   1.300
  1.310   1.311   1.331   1.342   1.349   1.352   1.359   1.365
  1.369   1.376   1.399   1.405   1.415   1.431   1.443   1.452
  1.473   1.495   1.495   1.501   1.508   1.518   1.554   1.572
  1.584   1.641   1.655   1.659   1.687   1.734   1.737   1.745
  1.803   1.815   1.824   1.832   1.842   1.876   1.883   1.886
  1.897   1.928   1.946   1.961   1.963   1.985   1.995   2.035
  2.055   2.108   2.125   2.143   2.220   2.241   2.252   2.260
  2.288   2.296   2.305   2.359   2.364   2.387   2.395   2.417
  2.429   2.487   2.533   2.565   2.577   2.604   2.612   2.653
  2.677   2.723   2.734   2.765   2.830   2.833   2.865   2.884
  2.916   2.936   3.007   3.035   3.073   3.113   3.182   3.216
  3.229   3.251   3.333   3.343   3.401   3.404   3.584   3.595
  3.649   3.688   3.730   3.746   3.780   3.888   3.982   3.988
  3.993   4.052   4.090   4.106   4.121   4.131   4.172   4.189
  4.201   4.238   4.246   4.253   4.283   4.312   4.340   4.347
  4.356   4.357   4.375   4.398   4.411   4.432   4.433   4.473
  4.475   4.492   4.511   4.519   4.524   4.573   4.598   4.606
  4.619   4.635   4.642   4.656   4.678   4.711   4.728   4.753
  4.755   4.807   4.810   4.853   4.902   4.929   5.009   5.024
  5.071   5.078   5.081   5.099   5.148   5.151   5.199   5.271
  5.312   5.327   5.402   5.439   5.445   5.455   5.675   5.688
  5.916   5.975   6.015   6.066   6.294   6.341   6.715   6.751
  6.807   6.855   6.868   7.212   7.254   7.281   7.318   7.368
  7.571   7.664   7.695   7.739   7.793   7.838   8.097   8.220
  8.317   8.565   8.954   9.703   9.850   9.969  10.011  10.495
 11.680  11.988  12.066  13.700  14.789  14.855  20.267  20.338
 20.757  63.242 106.941
 --------------------------------------------------------------
 
          Ground-State Mulliken Net Atomic Charges

     Atom                 Charge (a.u.)
  ----------------------------------------
      1 GH                   -0.000365
      2 GH                   -0.000214
      3 GH                    0.000067
      4 GH                    0.000108
      5 GH                    0.000002
      6 GH                   -0.000001
      7 Si                    1.113888
      8 H                    -0.236389
      9 H                    -0.191128
     10 H                    -0.235495
     11 O                    -0.563292
     12 H                     0.112817
  ----------------------------------------
  Sum of atomic charges =    -0.000002

 -----------------------------------------------------------------
                    Cartesian Multipole Moments
 -----------------------------------------------------------------
    Charge (ESU x 10^10)
                -0.0000
    Dipole Moment (Debye)
         X       0.3906      Y      -0.6865      Z      -1.1574
       Tot       1.4013
    Quadrupole Moments (Debye-Ang)
        XX     -26.4317     XY       5.3898     YY     -20.8496
        XZ       8.5662     YZ       1.2945     ZZ     -20.4313
    Octopole Moments (Debye-Ang^2)
       XXX     399.0310    XXY     -45.6384    XYY     111.7508
       YYY     -17.4381    XXZ     -62.4979    XYZ      -8.4268
       YYZ      -1.2834    XZZ     108.9691    YZZ      -7.9968
       ZZZ      -1.9438
    Hexadecapole Moments (Debye-Ang^3)
      XXXX   -4350.4273   XXXY     374.1736   XXYY    -626.0769
      XYYY      85.7865   YYYY     -60.4356   XXXZ     449.2523
      XXYZ      56.0307   XYYZ       7.3629   YYYZ      -1.0773
      XXZZ    -605.4032   XYZZ      40.8967   YYZZ     -18.7074
      XZZZ       9.8113   YZZZ      -0.5812   ZZZZ     -46.8288
 -----------------------------------------------------------------
Archival summary:
1\1\gm4.localdomain\SP\MP2\BasisUnspecified\i114h6\xuedong\WedJul317:49:542019WedJul317:49:542019\0\\#,MP2,BasisUnspecified,\\0,1\Si\H,1,1.4717\H,1,1.48027,2,110.364\H,1,1.4832,2,109.898,3,118.631,0\O,1,1.65962,2,105.664,3,-121.043,0\H,5,0.958606,1,116.624,2,178.955,0\Gh,4,5.476,1,108.199,2,-64.5014,0\Gh,7,1.48325,4,107.909,1,-159.493,0\Gh,8,1.47164,7,109.909,4,-64.2177,0\Gh,8,1.48029,7,107.691,4,56.0312,0\Gh,8,1.65963,7,111.42,4,179.004,0\Gh,11,0.958597,8,116.626,7,-61.4435,0\\HF=-366.208722\MP2=-366.594108\\@

 Total job time:  89.90s(wall), 535.36s(cpu) 
 Wed Jul  3 17:49:54 2019

        *************************************************************
        *                                                           *
        *  Thank you very much for using Q-Chem.  Have a nice day.  *
        *                                                           *
        *************************************************************


