
Running Job 1 of 1 ../qm_inp/SiH3NH2_water.con2.120.qcinp
qchem ../qm_inp/SiH3NH2_water.con2.120.qcinp_34861.0 /scratch/xuedong/qchem34861/ 1
/home/qwang/software/qchem5.1.2/exe/qcprog.exe_s ../qm_inp/SiH3NH2_water.con2.120.qcinp_34861.0 /scratch/xuedong/qchem34861/
Check license passed

                  Welcome to Q-Chem
     A Quantum Leap Into The Future Of Chemistry


 Q-Chem 5.1, Q-Chem, Inc., Pleasanton, CA (2018)

 Yihan Shao,  Zhengting Gan,  E. Epifanovsky,  A. T. B. Gilbert,  M. Wormit,  
 J. Kussmann,  A. W. Lange,  A. Behn,  Jia Deng,  Xintian Feng,  D. Ghosh,  
 M. Goldey,  P. R. Horn,  L. D. Jacobson,  I. Kaliman,  T. Kus,  A. Landau,  
 Jie Liu,  E. I. Proynov,  R. M. Richard,  R. P. Steele,  E. J. Sundstrom,  
 H. L. Woodcock III,  P. M. Zimmerman,  D. Zuev,  B. Albrecht,  E. Alguire,  
 S. A. Baeppler,  D. Barton,  Z. Benda,  Y. A. Bernard,  E. J. Berquist,  
 K. B. Bravaya,  H. Burton,  D. Casanova,  Chun-Min Chang,  Yunqing Chen,  
 A. Chien,  K. D. Closser,  M. P. Coons,  S. Coriani,  S. Dasgupta,  
 A. L. Dempwolff,  M. Diedenhofen,  Hainam Do,  R. G. Edgar,  Po-Tung Fang,  
 S. Faraji,  S. Fatehi,  Qingguo Feng,  K. D. Fenk,  J. Fosso-Tande,  
 J. Gayvert,  Qinghui Ge,  A. Ghysels,  G. Gidofalvi,  J. Gomes,  
 J. Gonthier,  A. Gunina,  D. Hait,  M. W. D. Hanson-Heine,  
 P. H. P. Harbach,  A. W. Hauser,  J. E. Herr,  E. G. Hohenstein,  
 Z. C. Holden,  Kerwin Hui,  B. C. Huynh,  T.-C. Jagau,  Hyunjun Ji,  
 B. Kaduk,  K. Khistyaev,  Jaehoon Kim,  P. Klunzinger,  K. Koh,  
 D. Kosenkov,  L. Koulias,  T. Kowalczyk,  C. M. Krauter,  A. Kunitsa,  
 Ka Un Lao,  A. Laurent,  K. V. Lawler,  Joonho Lee,  D. Lefrancois,  
 S. Lehtola,  D. S. Levine,  Yi-Pei Li,  You-Sheng Lin,  Fenglai Liu,  
 E. Livshits,  A. Luenser,  P. Manohar,  E. Mansoor,  S. F. Manzer,  
 Shan-Ping Mao,  Yuezhi Mao,  N. Mardirossian,  A. V. Marenich,  
 T. Markovich,  L. A. Martinez-Martinez,  S. A. Maurer,  N. J. Mayhall,  
 S. C. McKenzie,  J.-M. Mewes,  A. F. Morrison,  J. W. Mullinax,  K. Nanda,  
 T. S. Nguyen-Beck,  R. Olivares-Amaya,  J. A. Parkhill,  T. M. Perrine,  
 F. Plasser,  P. Pokhilko,  S. Prager,  A. Prociuk,  E. Ramos,  D. R. Rehn,  
 F. Rob,  M. Schneider,  N. Sergueev,  S. M. Sharada,  S. Sharma,  
 D. W. Small,  T. Stauch,  T. Stein,  Yu-Chuan Su,  A. J. W. Thom,  
 A. Tkatchenko,  T. Tsuchimochi,  N. M. Tubman,  L. Vogt,  M. L. Vidal,  
 O. Vydrov,  M. A. Watson,  J. Wenzel,  M. de Wergifosse,  T. A. Wesolowski,  
 A. White,  J. Witte,  A. Yamada,  Jun Yang,  K. Yao,  S. Yeganeh,  
 S. R. Yost,  Zhi-Qiang You,  A. Zech,  Igor Ying Zhang,  Xing Zhang,  
 Yan Zhao,  Ying Zhu,  B. R. Brooks,  G. K. L. Chan,  C. J. Cramer,  
 M. S. Gordon,  W. J. Hehre,  A. Klamt,  M. W. Schmidt,  C. D. Sherrill,  
 D. G. Truhlar,  A. Aspuru-Guzik,  R. Baer,  A. T. Bell,  N. A. Besley,  
 Jeng-Da Chai,  A. E. DePrince, III,  R. A. DiStasio Jr.,  A. Dreuw,  
 B. D. Dunietz,  T. R. Furlani,  Chao-Ping Hsu,  Yousung Jung,  Jing Kong,  
 D. S. Lambrecht,  WanZhen Liang,  C. Ochsenfeld,  V. A. Rassolov,  
 L. V. Slipchenko,  J. E. Subotnik,  T. Van Voorhis,  J. M. Herbert,  
 A. I. Krylov,  P. M. W. Gill,  M. Head-Gordon

 Contributors to earlier versions of Q-Chem not listed above: 
 R. D. Adamson,  B. Austin,  J. Baker,  G. J. O. Beran,  K. Brandhorst,  
 S. T. Brown,  E. F. C. Byrd,  A. K. Chakraborty,  C.-L. Cheng,  
 Siu Hung Chien,  D. M. Chipman,  D. L. Crittenden,  H. Dachsel,  
 R. J. Doerksen,  A. D. Dutoi,  L. Fusti-Molnar,  W. A. Goddard III,  
 A. Golubeva-Zadorozhnaya,  S. R. Gwaltney,  G. Hawkins,  A. Heyden,  
 S. Hirata,  G. Kedziora,  F. J. Keil,  C. Kelley,  Jihan Kim,  R. A. King,  
 R. Z. Khaliullin,  P. P. Korambath,  W. Kurlancheek,  A. M. Lee,  M. S. Lee,  
 S. V. Levchenko,  Ching Yeh Lin,  D. Liotard,  R. C. Lochan,  I. Lotan,  
 P. E. Maslen,  N. Nair,  D. P. O'Neill,  D. Neuhauser,  E. Neuscamman,  
 C. M. Oana,  R. Olson,  B. Peters,  R. Peverati,  P. A. Pieniazek,  
 Y. M. Rhee,  J. Ritchie,  M. A. Rohrdanz,  E. Rosta,  N. J. Russ,  
 H. F. Schaefer III,  N. E. Schultz,  N. Shenvi,  A. C. Simmonett,  A. Sodt,  
 D. Stuck,  K. S. Thanthiriwatte,  V. Vanovschi,  Tao Wang,  A. Warshel,  
 C. F. Williams,  Q. Wu,  X. Xu,  W. Zhang

 Please cite Q-Chem as follows:
 Y. Shao et al., Mol. Phys. 113, 184-215 (2015)
 DOI: 10.1080/00268976.2014.952696

 Q-Chem 5.1.2 for Intel X86 EM64T Linux

 Parts of Q-Chem use Armadillo 8.300.2 (Tropical Shenanigans).
 http://arma.sourceforge.net/

 Q-Chem begins on Thu Jul 11 09:55:47 2019  

Host: 
0

     Scratch files written to /scratch/xuedong/qchem34861//
 Dec218 |scratch|qcdevops|jenkins|workspace|build_RNUM 6581   
Processing $rem in /home/qwang/software/qchem5.1.2/config/preferences.
 MEM_TOTAL  4000 
Core orbitals will be frozen
Input Ideriv = 1
Curr. Ideriv = -1
Max.  Ideriv = 1

Checking the input file for inconsistencies... 	...done.

--------------------------------------------------------------
User input:
--------------------------------------------------------------
$molecule
0 1
--
0 1
O     2.727262800     0.140250979     0.206246615
H     2.747771752     1.047748175    -0.107062323
H     2.825602485    -0.377966203    -0.596211209
--
0 1
Si    -0.940840449    -0.047023613     0.175279755
H    -0.519748797    -0.377686583     1.556001496
H    -0.479581667     1.320767109    -0.145340210
H    -0.359744889    -1.041093721    -0.751513391
N    -2.656155563    -0.063215428    -0.107839024
H    -3.219549860     0.632133358     0.355652048
H    -3.131811808    -0.951061331    -0.072653415
$end

$rem
BASIS = aug-cc-pVTZ
JOB_TYPE  =  BSSE
METHOD  =  MP2
SCF_CONVERGENCE  =  7
SCF_MAX_CYCLES  =  200
$end

--------------------------------------------------------------
 ----------------------------------------------------------------
             Standard Nuclear Orientation (Angstroms)
    I     Atom           X                Y                Z
 ----------------------------------------------------------------
    1      O       3.0668656861    -0.0060281808     0.0689729465
    2      H       3.1297766343     0.7733667277    -0.4884497456
    3      H       3.1273519303    -0.7345171114    -0.5537658373
    4      Si     -0.6060933787     0.0013085328     0.0871401050
    5      H      -0.1836586362     0.0527069326     1.5055743819
    6      H      -0.0794545556     1.1959696134    -0.6070102661
    7      H      -0.0897521753    -1.2437877435    -0.5194239802
    8      N      -2.3236939992    -0.0028759227    -0.1822201685
    9      H      -2.8441088442     0.8241598553     0.0646142961
   10      H      -2.8439145459    -0.8178608285     0.1022572893
 ----------------------------------------------------------------
 Molecular Point Group                 C1    NOp =  1
 Largest Abelian Subgroup              C1    NOp =  1
 Nuclear Repulsion Energy =   106.9136798081 hartrees
 There are       18 alpha and       18 beta electrons
 Requested basis set is aug-cc-pVTZ
 There are 107 shells and 303 basis functions

 Total QAlloc Memory Limit   4000 MB
 Mega-Array Size       188 MB
 MEM_STATIC part       192 MB

                       Distance Matrix (Angstroms)
             O (  1)   H (  2)   H (  3)   Si(  4)   H (  5)   H (  6)
   H (  2)  0.960278
   H (  3)  0.960291  1.509300
   Si(  4)  3.673011  3.857992  3.858862
   H (  5)  3.554319  3.933743  3.977863  1.480895
   H (  6)  3.435270  3.239107  3.743424  1.478651  2.404355
   H (  7)  3.441293  3.799373  3.257345  1.478105  2.406312  2.441351
   N (  8)  5.396410  5.516944  5.512463  1.738598  2.726076  2.579591
   H (  9)  5.968991  5.999647  6.202436  2.384597  3.122419  2.869257
   H ( 10)  5.966364  6.210147  6.007773  2.383088  3.131158  3.492966
             H (  7)   N (  8)   H (  9)
   N (  8)  2.577608
   H (  9)  3.493421  1.007843
   H ( 10)  2.855400  1.007848  1.642452
 
 A cutoff of  1.0D-10 yielded   5232 shell pairs
 There are     40940 function pairs (     52517 Cartesian)
 
 -------------------------------------------------------
 OpenMP Integral Computing Module                       
 Release: version 1.0, May 2013, Q-Chem Inc. Pittsburgh 
 -------------------------------------------------------
 Integral Job Info:
 Integral job number is                      11
 Integral operator is                         1
 short-range coefficients                     0
 long-range coefficients              100000000
 Omega coefficients                           0
 if combine SR and LR in K                    0
 Integral screening is                        0
 Integral computing path is                   2
 max size of driver memory is            800000
 size of driver memory is                776718
 size of scratch memory is             29531563
 max col of scratch BK array              10000
 max len of scratch array in speh3          662
 max len of scratch index in speh4           32
 max int batch size is                      520
 min int batch size is                       52
 fixed nKL is                                31
 max L of basis functions is                  3
 order of int derivative is                   0
 number of shells is                        107
 number of basis is                         344
 number of cartesian basis is               344
 number of contracted shell pairs          5232
 number of primitive shell pairs          15105
 maxK2 (contraction) of shell pair          169
 max number of K2 of shell pair               1
 max number of CS2 of shell pair            901
 max number of PS2 of shell pair           1131
 mem total for path MDJ                  634108
 -------------------------------------------------------
 Smallest overlap matrix eigenvalue = 1.85E-05

 Scale SEOQF with 1.000000e-01/1.000000e-01/1.000000e-01

 Standard Electronic Orientation quadrupole field applied
 Nucleus-field energy     =     0.0000000055 hartrees
 Guess MOs from converged MOs on fragments

-----------------------------------------------------------------
 SCF on fragment 1 out of 2
/home/qwang/software/qchem5.1.2/exe/qcprog.exe /scratch/xuedong/qchem34861/Frg1.input /scratch/xuedong/qchem34861/Frg1/ > /dev/null 
 SCF on fragment 2 out of 2
/home/qwang/software/qchem5.1.2/exe/qcprog.exe /scratch/xuedong/qchem34861/Frg2.input /scratch/xuedong/qchem34861/Frg2/ > /dev/null 
-----------------------------------------------------------------
 Done with SCF on isolated fragments
-----------------------------------------------------------------

 User-specified occupied guess orbitals will be used
 A restricted Hartree-Fock SCF calculation will be
 performed using Pulay DIIS extrapolation
 SCF converges when DIIS error is below 1.0E-07
 using 6 threads for integral computing
 -------------------------------------------------------
 OpenMP Integral computing Module                
 Release: version 1.0, May 2013, Q-Chem Inc. Pittsburgh 
 -------------------------------------------------------
 ---------------------------------------
  Cycle       Energy         DIIS Error
 ---------------------------------------
    1    -422.4112132364      1.38E-04
    2    -422.4115993112      2.66E-05
    3    -422.4116196796      9.24E-06
    4    -422.4116212659      4.04E-06
    5    -422.4116215723      8.27E-07
    6    -422.4116215956      2.40E-07
    7    -422.4116215972      8.55E-08 Convergence criterion met
 ---------------------------------------
 SCF time:  CPU 178.27 s  wall 29.76 s

-----------------------------------------------------------------
 SCF CP correction for fragment 1 out of 2
/home/qwang/software/qchem5.1.2/exe/qcprog.exe /scratch/xuedong/qchem34861/Frg1.input /scratch/xuedong/qchem34861/Frg1BSSE/ > /dev/null 
 SCF CP correction for fragment 2 out of 2
/home/qwang/software/qchem5.1.2/exe/qcprog.exe /scratch/xuedong/qchem34861/Frg2.input /scratch/xuedong/qchem34861/Frg2BSSE/ > /dev/null 
-----------------------------------------------------------------
 Done with counterpoise correction on fragments
-----------------------------------------------------------------

 SCF   energy in the final basis set = -422.41162160
 Total energy in the final basis set = -422.41162160
 
 Components of the MP2 correlation energy:
        aaaa  correlation energy =        -0.0682261030 au
        abab  correlation energy =        -0.4933751193 au
        bbbb  correlation energy =        -0.0682261030 au
        non-Brillouin singles    =        -0.0000000000 au

 Total  MP2   correlation energy =                    -0.62982733 au
        MP2         total energy =                  -423.04144892 au
 
 --------------------------------------------------------------
 
                    Orbital Energies (a.u.)
 --------------------------------------------------------------
 
 Alpha MOs
 -- Occupied --
-68.774 -20.569 -15.532  -6.120  -4.226  -4.226  -4.226  -1.354
 -1.131  -0.716  -0.715  -0.650  -0.587  -0.547  -0.511  -0.487
 -0.472  -0.398
 -- Virtual --
  0.028   0.033   0.045   0.055   0.059   0.062   0.073   0.075
  0.089   0.089   0.125   0.135   0.146   0.159   0.165   0.174
  0.177   0.178   0.180   0.198   0.216   0.221   0.223   0.227
  0.233   0.253   0.255   0.266   0.279   0.281   0.293   0.298
  0.320   0.334   0.338   0.347   0.354   0.363   0.375   0.383
  0.391   0.393   0.399   0.414   0.416   0.424   0.436   0.442
  0.444   0.469   0.473   0.474   0.481   0.505   0.519   0.537
  0.558   0.580   0.600   0.602   0.611   0.627   0.642   0.655
  0.660   0.669   0.676   0.684   0.686   0.709   0.723   0.736
  0.760   0.778   0.799   0.830   0.844   0.853   0.855   0.871
  0.877   0.909   0.919   0.928   0.944   0.953   0.968   0.969
  0.988   0.990   1.002   1.009   1.026   1.033   1.045   1.052
  1.057   1.065   1.081   1.089   1.105   1.117   1.122   1.133
  1.141   1.147   1.159   1.171   1.182   1.208   1.217   1.221
  1.224   1.240   1.244   1.256   1.281   1.296   1.305   1.325
  1.349   1.355   1.361   1.367   1.378   1.393   1.399   1.413
  1.434   1.447   1.467   1.481   1.507   1.518   1.550   1.557
  1.558   1.586   1.590   1.605   1.624   1.703   1.747   1.755
  1.801   1.810   1.843   1.848   1.889   1.907   1.939   1.948
  1.986   2.003   2.025   2.027   2.100   2.103   2.147   2.157
  2.178   2.206   2.215   2.236   2.250   2.323   2.331   2.342
  2.351   2.378   2.399   2.440   2.449   2.471   2.482   2.495
  2.502   2.562   2.575   2.679   2.730   2.766   2.814   2.821
  2.898   2.927   3.133   3.150   3.403   3.561   3.661   3.699
  3.745   3.760   3.763   3.801   3.973   3.987   4.028   4.033
  4.061   4.117   4.121   4.134   4.154   4.157   4.180   4.195
  4.222   4.235   4.239   4.251   4.267   4.282   4.297   4.311
  4.365   4.392   4.394   4.411   4.418   4.456   4.477   4.504
  4.505   4.525   4.535   4.566   4.574   4.609   4.645   4.679
  4.734   4.753   4.773   4.806   4.820   4.826   4.839   4.866
  4.898   4.963   4.998   5.081   5.125   5.140   5.157   5.164
  5.186   5.218   5.256   5.310   5.331   5.359   5.424   5.527
  5.554   5.576   5.700   5.899   5.974   6.049   6.180   6.199
  6.237   6.481   6.547   6.629   6.726   6.736   6.929   7.171
  7.297   7.306   7.337   7.377   7.394   7.561   7.761   7.901
  7.942   8.825   8.848  15.929  16.252
 --------------------------------------------------------------
 
          Ground-State Mulliken Net Atomic Charges

     Atom                 Charge (a.u.)
  ----------------------------------------
      1 O                    -0.459318
      2 H                     0.226381
      3 H                     0.225974
      4 Si                    1.032377
      5 H                    -0.274232
      6 H                    -0.253884
      7 H                    -0.249729
      8 N                    -0.491924
      9 H                     0.122230
     10 H                     0.122126
  ----------------------------------------
  Sum of atomic charges =     0.000000

 -----------------------------------------------------------------
                    Cartesian Multipole Moments
 -----------------------------------------------------------------
    Charge (ESU x 10^10)
                 0.0000
    Dipole Moment (Debye)
         X      -0.4348      Y       0.0993      Z      -0.9691
       Tot       1.0669
    Quadrupole Moments (Debye-Ang)
        XX     -24.8398     XY       0.2013     YY     -25.2314
        XZ      -9.0880     YZ       0.0031     ZZ     -30.4440
    Octopole Moments (Debye-Ang^2)
       XXX      -2.9157    XXY       1.0709    XYY       5.1271
       YYY       0.3185    XXZ     -12.4554    XYZ       0.4849
       YYZ      -0.0998    XZZ       9.4124    YZZ      -0.2348
       ZZZ      -2.4128
    Hexadecapole Moments (Debye-Ang^3)
      XXXX    -657.2515   XXXY       2.4194   XXYY     -83.8473
      XYYY       0.3353   YYYY     -58.0141   XXXZ     -86.5610
      XXYZ       0.1879   XYYZ      -6.8572   YYYZ      -0.0342
      XXZZ    -126.9058   XYZZ      -0.2052   YYZZ     -19.4314
      XZZZ      -7.1458   YZZZ       0.0215   ZZZZ     -62.1050
 -----------------------------------------------------------------

 ---------------------------------------------------------------------
 *                     Fragment's binding energy                     *
 ---------------------------------------------------------------------
    Fragment           E(TOTAL)         E(CP-CORR)           DE(BSSE)
 ---------------------------------------------------------------------
           1     -76.3289827153     -76.3292124219       0.0002297066
           2    -346.7102825913    -346.7104137688       0.0001311775
     Complex    -423.0414489224
 ---------------------------------------------------------------------
  DE, kJ/mol      -5.7331512565      -4.7856387775
 ---------------------------------------------------------------------

Archival summary:
1\1\gm4.localdomain\SP\MP2\BasisUnspecified\i1117\xuedong\ThuJul1110:00:102019ThuJul1110:00:102019\0\\#,MP2,BasisUnspecified,\\0,1\Si\H,1,1.4781\H,1,1.47865,2,111.316\H,1,1.48089,2,108.823,3,-119.731,0\N,1,1.7386,2,106.231,3,115.33,0\H,5,1.00784,1,118.048,2,-172.801,0\H,5,1.00785,1,117.914,2,52.5528,0\H,3,3.23911,1,103.314,2,-54.635,0\O,8,0.960278,3,93.5679,1,-5.99745,0\H,9,0.960291,8,103.601,3,97.2851,0\\HF=-422.411622\MP2=-423.041449\\@

 Total job time:  263.56s(wall), 515.99s(cpu) 
 Thu Jul 11 10:00:10 2019

        *************************************************************
        *                                                           *
        *  Thank you very much for using Q-Chem.  Have a nice day.  *
        *                                                           *
        *************************************************************


