
Running Job 1 of 1 ../qm_inp/SiH3NH2_SiH3NH2_con1.110.qcinp
qchem ../qm_inp/SiH3NH2_SiH3NH2_con1.110.qcinp_23543.0 /scratch/xuedong/qchem23543/ 1
/home/qwang/software/qchem5.1.2/exe/qcprog.exe_s ../qm_inp/SiH3NH2_SiH3NH2_con1.110.qcinp_23543.0 /scratch/xuedong/qchem23543/
Check license passed

                  Welcome to Q-Chem
     A Quantum Leap Into The Future Of Chemistry


 Q-Chem 5.1, Q-Chem, Inc., Pleasanton, CA (2018)

 Yihan Shao,  Zhengting Gan,  E. Epifanovsky,  A. T. B. Gilbert,  M. Wormit,  
 J. Kussmann,  A. W. Lange,  A. Behn,  Jia Deng,  Xintian Feng,  D. Ghosh,  
 M. Goldey,  P. R. Horn,  L. D. Jacobson,  I. Kaliman,  T. Kus,  A. Landau,  
 Jie Liu,  E. I. Proynov,  R. M. Richard,  R. P. Steele,  E. J. Sundstrom,  
 H. L. Woodcock III,  P. M. Zimmerman,  D. Zuev,  B. Albrecht,  E. Alguire,  
 S. A. Baeppler,  D. Barton,  Z. Benda,  Y. A. Bernard,  E. J. Berquist,  
 K. B. Bravaya,  H. Burton,  D. Casanova,  Chun-Min Chang,  Yunqing Chen,  
 A. Chien,  K. D. Closser,  M. P. Coons,  S. Coriani,  S. Dasgupta,  
 A. L. Dempwolff,  M. Diedenhofen,  Hainam Do,  R. G. Edgar,  Po-Tung Fang,  
 S. Faraji,  S. Fatehi,  Qingguo Feng,  K. D. Fenk,  J. Fosso-Tande,  
 J. Gayvert,  Qinghui Ge,  A. Ghysels,  G. Gidofalvi,  J. Gomes,  
 J. Gonthier,  A. Gunina,  D. Hait,  M. W. D. Hanson-Heine,  
 P. H. P. Harbach,  A. W. Hauser,  J. E. Herr,  E. G. Hohenstein,  
 Z. C. Holden,  Kerwin Hui,  B. C. Huynh,  T.-C. Jagau,  Hyunjun Ji,  
 B. Kaduk,  K. Khistyaev,  Jaehoon Kim,  P. Klunzinger,  K. Koh,  
 D. Kosenkov,  L. Koulias,  T. Kowalczyk,  C. M. Krauter,  A. Kunitsa,  
 Ka Un Lao,  A. Laurent,  K. V. Lawler,  Joonho Lee,  D. Lefrancois,  
 S. Lehtola,  D. S. Levine,  Yi-Pei Li,  You-Sheng Lin,  Fenglai Liu,  
 E. Livshits,  A. Luenser,  P. Manohar,  E. Mansoor,  S. F. Manzer,  
 Shan-Ping Mao,  Yuezhi Mao,  N. Mardirossian,  A. V. Marenich,  
 T. Markovich,  L. A. Martinez-Martinez,  S. A. Maurer,  N. J. Mayhall,  
 S. C. McKenzie,  J.-M. Mewes,  A. F. Morrison,  J. W. Mullinax,  K. Nanda,  
 T. S. Nguyen-Beck,  R. Olivares-Amaya,  J. A. Parkhill,  T. M. Perrine,  
 F. Plasser,  P. Pokhilko,  S. Prager,  A. Prociuk,  E. Ramos,  D. R. Rehn,  
 F. Rob,  M. Schneider,  N. Sergueev,  S. M. Sharada,  S. Sharma,  
 D. W. Small,  T. Stauch,  T. Stein,  Yu-Chuan Su,  A. J. W. Thom,  
 A. Tkatchenko,  T. Tsuchimochi,  N. M. Tubman,  L. Vogt,  M. L. Vidal,  
 O. Vydrov,  M. A. Watson,  J. Wenzel,  M. de Wergifosse,  T. A. Wesolowski,  
 A. White,  J. Witte,  A. Yamada,  Jun Yang,  K. Yao,  S. Yeganeh,  
 S. R. Yost,  Zhi-Qiang You,  A. Zech,  Igor Ying Zhang,  Xing Zhang,  
 Yan Zhao,  Ying Zhu,  B. R. Brooks,  G. K. L. Chan,  C. J. Cramer,  
 M. S. Gordon,  W. J. Hehre,  A. Klamt,  M. W. Schmidt,  C. D. Sherrill,  
 D. G. Truhlar,  A. Aspuru-Guzik,  R. Baer,  A. T. Bell,  N. A. Besley,  
 Jeng-Da Chai,  A. E. DePrince, III,  R. A. DiStasio Jr.,  A. Dreuw,  
 B. D. Dunietz,  T. R. Furlani,  Chao-Ping Hsu,  Yousung Jung,  Jing Kong,  
 D. S. Lambrecht,  WanZhen Liang,  C. Ochsenfeld,  V. A. Rassolov,  
 L. V. Slipchenko,  J. E. Subotnik,  T. Van Voorhis,  J. M. Herbert,  
 A. I. Krylov,  P. M. W. Gill,  M. Head-Gordon

 Contributors to earlier versions of Q-Chem not listed above: 
 R. D. Adamson,  B. Austin,  J. Baker,  G. J. O. Beran,  K. Brandhorst,  
 S. T. Brown,  E. F. C. Byrd,  A. K. Chakraborty,  C.-L. Cheng,  
 Siu Hung Chien,  D. M. Chipman,  D. L. Crittenden,  H. Dachsel,  
 R. J. Doerksen,  A. D. Dutoi,  L. Fusti-Molnar,  W. A. Goddard III,  
 A. Golubeva-Zadorozhnaya,  S. R. Gwaltney,  G. Hawkins,  A. Heyden,  
 S. Hirata,  G. Kedziora,  F. J. Keil,  C. Kelley,  Jihan Kim,  R. A. King,  
 R. Z. Khaliullin,  P. P. Korambath,  W. Kurlancheek,  A. M. Lee,  M. S. Lee,  
 S. V. Levchenko,  Ching Yeh Lin,  D. Liotard,  R. C. Lochan,  I. Lotan,  
 P. E. Maslen,  N. Nair,  D. P. O'Neill,  D. Neuhauser,  E. Neuscamman,  
 C. M. Oana,  R. Olson,  B. Peters,  R. Peverati,  P. A. Pieniazek,  
 Y. M. Rhee,  J. Ritchie,  M. A. Rohrdanz,  E. Rosta,  N. J. Russ,  
 H. F. Schaefer III,  N. E. Schultz,  N. Shenvi,  A. C. Simmonett,  A. Sodt,  
 D. Stuck,  K. S. Thanthiriwatte,  V. Vanovschi,  Tao Wang,  A. Warshel,  
 C. F. Williams,  Q. Wu,  X. Xu,  W. Zhang

 Please cite Q-Chem as follows:
 Y. Shao et al., Mol. Phys. 113, 184-215 (2015)
 DOI: 10.1080/00268976.2014.952696

 Q-Chem 5.1.2 for Intel X86 EM64T Linux

 Parts of Q-Chem use Armadillo 8.300.2 (Tropical Shenanigans).
 http://arma.sourceforge.net/

 Q-Chem begins on Tue Jul  2 12:49:21 2019  

Host: 
0

     Scratch files written to /scratch/xuedong/qchem23543//
 Dec218 |scratch|qcdevops|jenkins|workspace|build_RNUM 6581   
Processing $rem in /home/qwang/software/qchem5.1.2/config/preferences.
 MEM_TOTAL  4000 
Core orbitals will be frozen
Input Ideriv = 1
Curr. Ideriv = -1
Max.  Ideriv = 1

Checking the input file for inconsistencies... 	...done.

--------------------------------------------------------------
User input:
--------------------------------------------------------------
$molecule
0 1
--
0 1
Si    -1.603238946    -0.037666475    -0.093158434
H    -1.351489209     0.587977452    -1.416517664
H    -1.362259228    -1.490505278    -0.207462190
H    -0.720166038     0.598793029     0.904338035
N    -3.226075392     0.145065116     0.503430997
H    -3.972557755    -0.323149309     0.014787982
H    -3.532381265     1.064684992     0.778721563
--
0 1
Si     2.731713318     0.223209066     0.187093622
H     4.187511726     0.111743012    -0.086123320
H     2.469303294    -0.410636808     1.495596063
H     2.389027699     1.660058915     0.221149196
N     1.689849866    -0.534408033    -0.979153130
H     1.707014536    -1.540778017    -1.045602919
H     1.651383197    -0.139769590    -1.906383494
$end

$rem
BASIS = aug-cc-pVTZ
JOB_TYPE  =  BSSE
METHOD  =  MP2
SCF_CONVERGENCE  =  8
SCF_MAX_CYCLES  =  200
$end

--------------------------------------------------------------
 ----------------------------------------------------------------
             Standard Nuclear Orientation (Angstroms)
    I     Atom           X                Y                Z
 ----------------------------------------------------------------
    1      Si     -1.7238167410    -0.1319501008    -0.0296647676
    2      H      -1.4026128867    -0.8783028503    -1.2729964057
    3      H      -1.4681418483    -1.0145781495     1.1268278773
    4      H      -0.9014224531     1.0936162784     0.0097351319
    5      N      -3.3783888186     0.3851611913     0.1041076710
    6      H      -4.0937166692    -0.3168860865     0.2073953663
    7      H      -3.7050425316     1.1053609161    -0.5203269599
    8      Si      2.5871958890     0.4608006411     0.0175057375
    9      H       4.0565789335     0.2441402970    -0.0023171537
   10      H       2.2562239336     1.1897265545     1.2592475900
   11      H       2.2345334383     1.2626815568    -1.1723458907
   12      N       1.6163719017    -0.9799863703    -0.0175396797
   13      H       1.6432424371    -1.5882155662     0.7867152331
   14      H       1.6271679928    -1.5376742614    -0.8576843064
 ----------------------------------------------------------------
 Molecular Point Group                 C1    NOp =  1
 Largest Abelian Subgroup              C1    NOp =  1
 Nuclear Repulsion Energy =   208.7632768692 hartrees
 There are       26 alpha and       26 beta electrons
 Requested basis set is aug-cc-pVTZ
 There are 150 shells and 422 basis functions

 Total QAlloc Memory Limit   4000 MB
 Mega-Array Size       188 MB
 MEM_STATIC part       192 MB

                       Distance Matrix (Angstroms)
             Si(  1)   H (  2)   H (  3)   H (  4)   N (  5)   H (  6)
   H (  2)  1.485291
   H (  3)  1.477118  2.404583
   H (  4)  1.476448  2.405215  2.452254
   N (  5)  1.738651  2.719641  2.579587  2.578018
   H (  6)  2.388896  3.122305  2.868061  3.495616  1.007588
   H (  7)  2.386827  3.130913  3.494422  2.853312  1.007625  1.644212
   Si(  8)  4.351828  4.401950  4.455682  3.545557  5.966693  6.728703
   H (  9)  5.792682  5.716404  5.777705  5.030262  7.437067  8.172273
   H ( 10)  4.387351  4.906739  4.329826  3.397241  5.807799  6.610448
   H ( 11)  4.349627  4.221703  4.917511  3.355610  5.822737  6.666744
   N ( 12)  3.446182  3.271205  3.290137  3.261880  5.179388  5.752861
   H ( 13)  3.758227  3.744813  3.182051  3.777729  5.438469  5.904624
   H ( 14)  3.727033  3.128390  3.713874  3.750983  5.447746  5.945859
             H (  7)   Si(  8)   H (  9)   H ( 10)   H ( 11)   N ( 12)
   Si(  8)  6.347991
   H (  9)  7.826417  1.485403
   H ( 10)  6.221792  1.477430  2.393106
   H ( 11)  5.977327  1.477542  2.392957  2.432784
   N ( 12)  5.737501  1.737698  2.730078  2.597547  2.597164
   H ( 13)  6.129263  2.383527  3.131181  2.883747  3.509296  1.008707
   H ( 14)  5.960865  2.383592  3.131861  3.509391  2.882689  1.008452
             H ( 13)
   H ( 14)  1.645255
 
 A cutoff of  1.0D-11 yielded  10229 shell pairs
 There are     79639 function pairs (    102099 Cartesian)
 
 -------------------------------------------------------
 OpenMP Integral Computing Module                       
 Release: version 1.0, May 2013, Q-Chem Inc. Pittsburgh 
 -------------------------------------------------------
 Integral Job Info:
 Integral job number is                      11
 Integral operator is                         1
 short-range coefficients                     0
 long-range coefficients              100000000
 Omega coefficients                           0
 if combine SR and LR in K                    0
 Integral screening is                        0
 Integral computing path is                   2
 max size of driver memory is            800000
 size of driver memory is                776718
 size of scratch memory is             29531563
 max col of scratch BK array              10000
 max len of scratch array in speh3          662
 max len of scratch index in speh4           32
 max int batch size is                      520
 min int batch size is                       52
 fixed nKL is                                31
 max L of basis functions is                  3
 order of int derivative is                   0
 number of shells is                        150
 number of basis is                         478
 number of cartesian basis is               478
 number of contracted shell pairs         10229
 number of primitive shell pairs          30528
 maxK2 (contraction) of shell pair          169
 max number of K2 of shell pair               1
 max number of CS2 of shell pair           1785
 max number of PS2 of shell pair           2873
 mem total for path MDJ                  757036
 -------------------------------------------------------
 Smallest overlap matrix eigenvalue = 1.52E-05

 Scale SEOQF with 1.000000e-01/1.000000e-01/1.000000e-01

 Standard Electronic Orientation quadrupole field applied
 Nucleus-field energy     =     0.0000000116 hartrees
 Guess MOs from converged MOs on fragments

-----------------------------------------------------------------
 SCF on fragment 1 out of 2
/home/qwang/software/qchem5.1.2/exe/qcprog.exe /scratch/xuedong/qchem23543/Frg1.input /scratch/xuedong/qchem23543/Frg1/ > /dev/null 
 SCF on fragment 2 out of 2
/home/qwang/software/qchem5.1.2/exe/qcprog.exe /scratch/xuedong/qchem23543/Frg2.input /scratch/xuedong/qchem23543/Frg2/ > /dev/null 
-----------------------------------------------------------------
 Done with SCF on isolated fragments
-----------------------------------------------------------------

 User-specified occupied guess orbitals will be used
 A restricted Hartree-Fock SCF calculation will be
 performed using Pulay DIIS extrapolation
 SCF converges when DIIS error is below 1.0E-08
 using 6 threads for integral computing
 -------------------------------------------------------
 OpenMP Integral computing Module                
 Release: version 1.0, May 2013, Q-Chem Inc. Pittsburgh 
 -------------------------------------------------------
 ---------------------------------------
  Cycle       Energy         DIIS Error
 ---------------------------------------
    1    -692.7004705971      1.56E-04
    2    -692.7015347655      3.26E-05
    3    -692.7016027423      1.14E-05
    4    -692.7016082568      4.85E-06
    5    -692.7016091985      9.20E-07
    6    -692.7016092529      2.56E-07
    7    -692.7016092567      6.04E-08
    8    -692.7016092570      1.59E-08
    9    -692.7016092570      7.95E-09 Convergence criterion met
 ---------------------------------------
 SCF time:  CPU 970.78 s  wall 161.78 s

-----------------------------------------------------------------
 SCF CP correction for fragment 1 out of 2
/home/qwang/software/qchem5.1.2/exe/qcprog.exe /scratch/xuedong/qchem23543/Frg1.input /scratch/xuedong/qchem23543/Frg1BSSE/ > /dev/null 
 SCF CP correction for fragment 2 out of 2
/home/qwang/software/qchem5.1.2/exe/qcprog.exe /scratch/xuedong/qchem23543/Frg2.input /scratch/xuedong/qchem23543/Frg2BSSE/ > /dev/null 
-----------------------------------------------------------------
 Done with counterpoise correction on fragments
-----------------------------------------------------------------

 SCF   energy in the final basis set = -692.70160926
 Total energy in the final basis set = -692.70160926
 
 Components of the MP2 correlation energy:
        aaaa  correlation energy =        -0.0714808294 au
        abab  correlation energy =        -0.5803821406 au
        bbbb  correlation energy =        -0.0714808294 au
        non-Brillouin singles    =        -0.0000000000 au

 Total  MP2   correlation energy =                    -0.72334380 au
        MP2         total energy =                  -693.42495306 au
 
 --------------------------------------------------------------
 
                    Orbital Energies (a.u.)
 --------------------------------------------------------------
 
 Alpha MOs
 -- Occupied --
-68.779 -68.770 -15.539 -15.528  -6.125  -6.116  -4.232  -4.232
 -4.231  -4.222  -4.222  -4.222  -1.138  -1.127  -0.721  -0.712
 -0.657  -0.647  -0.554  -0.544  -0.494  -0.482  -0.476  -0.468
 -0.406  -0.394
 -- Virtual --
  0.027   0.033   0.041   0.047   0.052   0.056   0.063   0.067
  0.070   0.074   0.082   0.085   0.088   0.094   0.104   0.119
  0.128   0.142   0.143   0.151   0.157   0.162   0.168   0.173
  0.174   0.177   0.184   0.185   0.194   0.196   0.200   0.215
  0.217   0.231   0.235   0.242   0.250   0.261   0.273   0.278
  0.280   0.284   0.291   0.295   0.299   0.315   0.316   0.325
  0.332   0.335   0.340   0.342   0.360   0.363   0.367   0.368
  0.376   0.379   0.384   0.395   0.396   0.400   0.408   0.411
  0.416   0.418   0.427   0.439   0.441   0.448   0.459   0.465
  0.472   0.480   0.489   0.497   0.500   0.512   0.522   0.536
  0.542   0.548   0.556   0.576   0.581   0.592   0.597   0.615
  0.620   0.620   0.626   0.637   0.645   0.649   0.653   0.658
  0.673   0.678   0.683   0.687   0.692   0.704   0.705   0.708
  0.724   0.729   0.735   0.744   0.763   0.767   0.785   0.796
  0.810   0.829   0.858   0.865   0.877   0.888   0.906   0.926
  0.935   0.936   0.940   0.949   0.953   0.957   0.973   0.982
  0.994   1.001   1.005   1.014   1.023   1.030   1.032   1.038
  1.049   1.050   1.059   1.062   1.074   1.089   1.098   1.108
  1.117   1.126   1.128   1.132   1.143   1.147   1.153   1.163
  1.169   1.181   1.199   1.206   1.213   1.224   1.226   1.230
  1.242   1.244   1.247   1.263   1.265   1.268   1.279   1.291
  1.299   1.310   1.312   1.314   1.319   1.347   1.354   1.357
  1.370   1.377   1.385   1.400   1.402   1.403   1.408   1.412
  1.424   1.432   1.450   1.455   1.459   1.466   1.471   1.480
  1.490   1.507   1.514   1.531   1.537   1.548   1.553   1.571
  1.580   1.598   1.602   1.608   1.621   1.659   1.668   1.695
  1.721   1.749   1.754   1.767   1.769   1.794   1.815   1.840
  1.841   1.859   1.886   1.899   1.909   1.920   1.947   1.959
  1.969   1.973   1.993   2.023   2.033   2.044   2.049   2.074
  2.107   2.111   2.117   2.136   2.154   2.186   2.200   2.212
  2.226   2.231   2.251   2.255   2.261   2.269   2.271   2.301
  2.312   2.336   2.357   2.376   2.406   2.411   2.449   2.476
  2.490   2.493   2.504   2.523   2.532   2.550   2.707   2.722
  2.915   3.010   3.114   3.154   3.186   3.260   3.405   3.452
  3.578   3.654   3.689   3.711   3.719   3.747   3.761   3.775
  3.824   3.852   3.984   3.992   4.021   4.035   4.054   4.055
  4.079   4.082   4.112   4.129   4.129   4.141   4.149   4.150
  4.165   4.176   4.181   4.186   4.195   4.205   4.212   4.233
  4.249   4.259   4.269   4.284   4.286   4.294   4.309   4.334
  4.341   4.375   4.382   4.398   4.408   4.414   4.466   4.485
  4.499   4.510   4.514   4.527   4.534   4.546   4.560   4.578
  4.581   4.593   4.621   4.637   4.652   4.689   4.692   4.707
  4.748   4.753   4.760   4.773   4.817   4.819   4.828   4.839
  4.847   4.851   4.858   4.878   4.889   4.952   4.987   4.999
  5.035   5.068   5.086   5.111   5.124   5.152   5.161   5.169
  5.198   5.204   5.240   5.261   5.324   5.330   5.352   5.367
  5.434   5.453   5.530   5.562   5.580   5.599   5.899   5.922
  5.975   5.986   6.057   6.068   6.179   6.194   6.199   6.204
  6.492   6.528   6.625   6.634   6.745   6.784   7.770   7.779
  8.981   9.136  16.300  16.491
 --------------------------------------------------------------
 
          Ground-State Mulliken Net Atomic Charges

     Atom                 Charge (a.u.)
  ----------------------------------------
      1 Si                    1.135973
      2 H                    -0.290668
      3 H                    -0.232214
      4 H                    -0.225363
      5 N                    -0.620290
      6 H                     0.115032
      7 H                     0.117575
      8 Si                    1.071931
      9 H                    -0.432475
     10 H                    -0.259810
     11 H                    -0.256834
     12 N                    -0.317018
     13 H                     0.096131
     14 H                     0.098030
  ----------------------------------------
  Sum of atomic charges =     0.000000

 -----------------------------------------------------------------
                    Cartesian Multipole Moments
 -----------------------------------------------------------------
    Charge (ESU x 10^10)
                 0.0000
    Dipole Moment (Debye)
         X      -0.1333      Y      -1.3479      Z      -0.8031
       Tot       1.5746
    Quadrupole Moments (Debye-Ang)
        XX     -40.6629     XY      -1.3345     YY     -41.7331
        XZ       3.1114     YZ      -1.7537     ZZ     -44.4619
    Octopole Moments (Debye-Ang^2)
       XXX     -48.5586    XXY      -9.0739    XYY      -1.4366
       YYY      -7.9512    XXZ     -11.2991    XYZ       6.3041
       YYZ      -1.5030    XZZ       3.0107    YZZ      -4.5123
       ZZZ      -0.6269
    Hexadecapole Moments (Debye-Ang^3)
      XXXX   -1503.5734   XXXY       7.0649   XXYY    -267.8931
      XYYY     -23.9488   YYYY    -162.9623   XXXZ      40.8334
      XXYZ     -23.4004   XYYZ       6.6581   YYYZ      -3.0646
      XXZZ    -284.4208   XYZZ     -16.6084   YYZZ     -43.7390
      XZZZ       1.6823   YZZZ      -2.1527   ZZZZ    -104.5775
 -----------------------------------------------------------------

 ---------------------------------------------------------------------
 *                     Fragment's binding energy                     *
 ---------------------------------------------------------------------
    Fragment           E(TOTAL)         E(CP-CORR)           DE(BSSE)
 ---------------------------------------------------------------------
           1    -346.7102810193    -346.7106162514       0.0003352321
           2    -346.7104232947    -346.7108575077       0.0004342129
     Complex    -693.4249530564
 ---------------------------------------------------------------------
  DE, kJ/mol     -11.1552054180      -9.1350035762
 ---------------------------------------------------------------------

Archival summary:
1\1\mm2.localdomain\SP\MP2\BasisUnspecified\i2210\xuedong\TueJul213:10:252019TueJul213:10:252019\0\\#,MP2,BasisUnspecified,\\0,1\Si\H,1,1.47645\H,1,1.47712,2,112.253\H,1,1.48529,2,108.602,3,-119.994,0\N,1,1.73865,2,106.328,3,115.95,0\H,5,1.00759,1,118.442,2,-172.797,0\H,5,1.00763,1,118.256,2,51.2347,0\H,4,3.12839,1,101.784,2,62.1666,0\N,8,1.00845,4,89.0645,1,-5.51954,0\H,9,1.00871,8,109.299,4,106.254,0\Si,9,1.7377,8,117.992,4,-115.253,0\H,11,1.47743,9,107.51,8,172.161,0\H,11,1.47754,9,107.481,8,52.8015,0\H,11,1.4854,9,115.56,8,-67.4981,0\\HF=-692.701609\MP2=-693.424953\\@

 Total job time:  1264.62s(wall), 3455.46s(cpu) 
 Tue Jul  2 13:10:25 2019

        *************************************************************
        *                                                           *
        *  Thank you very much for using Q-Chem.  Have a nice day.  *
        *                                                           *
        *************************************************************


