
Running Job 1 of 3 ../qm_inp/SiH3NH2_SiH3NH2_con3.105.qcinp
qchem ../qm_inp/SiH3NH2_SiH3NH2_con3.105.qcinp_17906.0 /scratch/xuedong/qchem17906/ 1
/home/qwang/software/qchem5.1.2/exe/qcprog.exe_s ../qm_inp/SiH3NH2_SiH3NH2_con3.105.qcinp_17906.0 /scratch/xuedong/qchem17906/
Check license passed

                  Welcome to Q-Chem
     A Quantum Leap Into The Future Of Chemistry


 Q-Chem 5.1, Q-Chem, Inc., Pleasanton, CA (2018)

 Yihan Shao,  Zhengting Gan,  E. Epifanovsky,  A. T. B. Gilbert,  M. Wormit,  
 J. Kussmann,  A. W. Lange,  A. Behn,  Jia Deng,  Xintian Feng,  D. Ghosh,  
 M. Goldey,  P. R. Horn,  L. D. Jacobson,  I. Kaliman,  T. Kus,  A. Landau,  
 Jie Liu,  E. I. Proynov,  R. M. Richard,  R. P. Steele,  E. J. Sundstrom,  
 H. L. Woodcock III,  P. M. Zimmerman,  D. Zuev,  B. Albrecht,  E. Alguire,  
 S. A. Baeppler,  D. Barton,  Z. Benda,  Y. A. Bernard,  E. J. Berquist,  
 K. B. Bravaya,  H. Burton,  D. Casanova,  Chun-Min Chang,  Yunqing Chen,  
 A. Chien,  K. D. Closser,  M. P. Coons,  S. Coriani,  S. Dasgupta,  
 A. L. Dempwolff,  M. Diedenhofen,  Hainam Do,  R. G. Edgar,  Po-Tung Fang,  
 S. Faraji,  S. Fatehi,  Qingguo Feng,  K. D. Fenk,  J. Fosso-Tande,  
 J. Gayvert,  Qinghui Ge,  A. Ghysels,  G. Gidofalvi,  J. Gomes,  
 J. Gonthier,  A. Gunina,  D. Hait,  M. W. D. Hanson-Heine,  
 P. H. P. Harbach,  A. W. Hauser,  J. E. Herr,  E. G. Hohenstein,  
 Z. C. Holden,  Kerwin Hui,  B. C. Huynh,  T.-C. Jagau,  Hyunjun Ji,  
 B. Kaduk,  K. Khistyaev,  Jaehoon Kim,  P. Klunzinger,  K. Koh,  
 D. Kosenkov,  L. Koulias,  T. Kowalczyk,  C. M. Krauter,  A. Kunitsa,  
 Ka Un Lao,  A. Laurent,  K. V. Lawler,  Joonho Lee,  D. Lefrancois,  
 S. Lehtola,  D. S. Levine,  Yi-Pei Li,  You-Sheng Lin,  Fenglai Liu,  
 E. Livshits,  A. Luenser,  P. Manohar,  E. Mansoor,  S. F. Manzer,  
 Shan-Ping Mao,  Yuezhi Mao,  N. Mardirossian,  A. V. Marenich,  
 T. Markovich,  L. A. Martinez-Martinez,  S. A. Maurer,  N. J. Mayhall,  
 S. C. McKenzie,  J.-M. Mewes,  A. F. Morrison,  J. W. Mullinax,  K. Nanda,  
 T. S. Nguyen-Beck,  R. Olivares-Amaya,  J. A. Parkhill,  T. M. Perrine,  
 F. Plasser,  P. Pokhilko,  S. Prager,  A. Prociuk,  E. Ramos,  D. R. Rehn,  
 F. Rob,  M. Schneider,  N. Sergueev,  S. M. Sharada,  S. Sharma,  
 D. W. Small,  T. Stauch,  T. Stein,  Yu-Chuan Su,  A. J. W. Thom,  
 A. Tkatchenko,  T. Tsuchimochi,  N. M. Tubman,  L. Vogt,  M. L. Vidal,  
 O. Vydrov,  M. A. Watson,  J. Wenzel,  M. de Wergifosse,  T. A. Wesolowski,  
 A. White,  J. Witte,  A. Yamada,  Jun Yang,  K. Yao,  S. Yeganeh,  
 S. R. Yost,  Zhi-Qiang You,  A. Zech,  Igor Ying Zhang,  Xing Zhang,  
 Yan Zhao,  Ying Zhu,  B. R. Brooks,  G. K. L. Chan,  C. J. Cramer,  
 M. S. Gordon,  W. J. Hehre,  A. Klamt,  M. W. Schmidt,  C. D. Sherrill,  
 D. G. Truhlar,  A. Aspuru-Guzik,  R. Baer,  A. T. Bell,  N. A. Besley,  
 Jeng-Da Chai,  A. E. DePrince, III,  R. A. DiStasio Jr.,  A. Dreuw,  
 B. D. Dunietz,  T. R. Furlani,  Chao-Ping Hsu,  Yousung Jung,  Jing Kong,  
 D. S. Lambrecht,  WanZhen Liang,  C. Ochsenfeld,  V. A. Rassolov,  
 L. V. Slipchenko,  J. E. Subotnik,  T. Van Voorhis,  J. M. Herbert,  
 A. I. Krylov,  P. M. W. Gill,  M. Head-Gordon

 Contributors to earlier versions of Q-Chem not listed above: 
 R. D. Adamson,  B. Austin,  J. Baker,  G. J. O. Beran,  K. Brandhorst,  
 S. T. Brown,  E. F. C. Byrd,  A. K. Chakraborty,  C.-L. Cheng,  
 Siu Hung Chien,  D. M. Chipman,  D. L. Crittenden,  H. Dachsel,  
 R. J. Doerksen,  A. D. Dutoi,  L. Fusti-Molnar,  W. A. Goddard III,  
 A. Golubeva-Zadorozhnaya,  S. R. Gwaltney,  G. Hawkins,  A. Heyden,  
 S. Hirata,  G. Kedziora,  F. J. Keil,  C. Kelley,  Jihan Kim,  R. A. King,  
 R. Z. Khaliullin,  P. P. Korambath,  W. Kurlancheek,  A. M. Lee,  M. S. Lee,  
 S. V. Levchenko,  Ching Yeh Lin,  D. Liotard,  R. C. Lochan,  I. Lotan,  
 P. E. Maslen,  N. Nair,  D. P. O'Neill,  D. Neuhauser,  E. Neuscamman,  
 C. M. Oana,  R. Olson,  B. Peters,  R. Peverati,  P. A. Pieniazek,  
 Y. M. Rhee,  J. Ritchie,  M. A. Rohrdanz,  E. Rosta,  N. J. Russ,  
 H. F. Schaefer III,  N. E. Schultz,  N. Shenvi,  A. C. Simmonett,  A. Sodt,  
 D. Stuck,  K. S. Thanthiriwatte,  V. Vanovschi,  Tao Wang,  A. Warshel,  
 C. F. Williams,  Q. Wu,  X. Xu,  W. Zhang

 Please cite Q-Chem as follows:
 Y. Shao et al., Mol. Phys. 113, 184-215 (2015)
 DOI: 10.1080/00268976.2014.952696

 Q-Chem 5.1.2 for Intel X86 EM64T Linux

 Parts of Q-Chem use Armadillo 8.300.2 (Tropical Shenanigans).
 http://arma.sourceforge.net/

 Q-Chem begins on Wed Jul  3 20:15:21 2019  

Host: 
0

     Scratch files written to /scratch/xuedong/qchem17906//
 Dec218 |scratch|qcdevops|jenkins|workspace|build_RNUM 6581   
Processing $rem in /home/qwang/software/qchem5.1.2/config/preferences.
 MEM_TOTAL  4000 
Core orbitals will be frozen
Input Ideriv = 1
Curr. Ideriv = -1
Max.  Ideriv = 1

Checking the input file for inconsistencies... 	...done.

--------------------------------------------------------------
User input:
--------------------------------------------------------------
$molecule
0 1
Si     1.924810978     0.221250999     0.126279543
H     1.412655312     0.307098559     1.517792385
H     1.133853934    -0.817922695    -0.568974842
H     1.726171862     1.539629336    -0.510559482
N     3.598001176    -0.193061537    -0.046238154
H     3.898337608    -1.114121400     0.229631138
H     4.290301474     0.485203856     0.228290528
Si    -2.126252677    -0.361684052    -0.206855633
H    -1.893444655    -0.804388720    -1.605135628
H    -1.701584127    -1.458094810     0.688429460
H    -1.298317542     0.842752968     0.020871680
N    -3.760239821     0.046229544     0.200083141
H    -4.442922378    -0.693482455     0.241076871
H    -4.171268191     0.861376391    -0.225991379
$end

$rem
BASIS = aug-cc-pVTZ
JOB_TYPE  =  SP
METHOD  =  MP2
SCF_MAX_CYCLES  =  200
$end

--------------------------------------------------------------
 ----------------------------------------------------------------
             Standard Nuclear Orientation (Angstroms)
    I     Atom           X                Y                Z
 ----------------------------------------------------------------
    1      Si     -2.0317891611     0.2427923688    -0.0247695107
    2      H      -1.5496875270     0.7109723026    -1.3492946268
    3      H      -1.1933991765    -0.9125823178     0.3639273366
    4      H      -1.8649488519     1.3534339134     0.9353255639
    5      N      -3.6866118620    -0.2642988305     0.0487357010
    6      H      -3.9613554421    -1.0907472687    -0.4573829156
    7      H      -4.4062866835     0.4360620216    -0.0303368694
    8      Si      2.0421137023    -0.2560936854     0.1030476282
    9      H       1.8511723027    -1.0596689717     1.3372202595
   10      H       1.6370360361    -1.0931263176    -1.0455531650
   11      H       1.1702763009     0.9341268287     0.2092527387
   12      N       3.6534582936     0.3050889194    -0.1978665565
   13      H       4.3594895615    -0.3717928099    -0.4392392437
   14      H       4.0452348814     0.9940104290     0.4241032648
 ----------------------------------------------------------------
 Molecular Point Group                 C1    NOp =  1
 Largest Abelian Subgroup              C1    NOp =  1
 Nuclear Repulsion Energy =   201.3685563521 hartrees
 There are       26 alpha and       26 beta electrons
 Requested basis set is aug-cc-pVTZ
 There are 150 shells and 422 basis functions

 Total QAlloc Memory Limit   4000 MB
 Mega-Array Size       188 MB
 MEM_STATIC part       192 MB

                       Distance Matrix (Angstroms)
             Si(  1)   H (  2)   H (  3)   H (  4)   N (  5)   H (  6)
   H (  2)  1.485255
   H (  3)  1.479484  2.387048
   H (  4)  1.477546  2.394084  2.431523
   N (  5)  1.732334  2.733512  2.595328  2.592597
   H (  6)  2.385101  3.139720  2.892728  3.508358  1.007302
   H (  7)  2.382357  3.158383  3.506698  2.869229  1.007318  1.646657
   Si(  8)  4.106325  3.993188  3.311734  4.306786  5.728989  6.087066
   H (  9)  4.316111  4.681707  3.199742  4.449061  5.741068  6.083342
   H ( 10)  4.035710  3.674539  3.167111  4.708868  5.497786  5.629204
   H ( 11)  3.284194  3.142781  3.003535  3.148903  5.005133  5.556812
   N ( 12)  5.688223  5.344460  5.028952  5.730268  7.366250  7.746037
   H ( 13)  6.434123  6.076097  5.636675  6.603747  8.061602  8.351867
   H ( 14)  6.139710  5.876071  5.575124  5.943131  7.842557  8.320380
             H (  7)   Si(  8)   H (  9)   H ( 10)   H ( 11)   N ( 12)
   Si(  8)  6.486813
   H (  9)  6.577478  1.485050
   H ( 10)  6.315919  1.477835  2.392610
   H ( 11)  5.603885  1.479191  2.389802  2.429436
   N ( 12)  8.062550  1.732601  2.732634  2.596062  2.593767
   H ( 13)  8.812415  2.382791  3.149704  2.880919  3.506715  1.007427
   H ( 14)  8.482101  2.382925  3.140906  3.509338  2.883597  1.007446
             H ( 13)
   H ( 14)  1.646066
 
 A cutoff of  1.0D-08 yielded   9100 shell pairs
 There are     69076 function pairs (     88150 Cartesian)
 
 -------------------------------------------------------
 OpenMP Integral Computing Module                       
 Release: version 1.0, May 2013, Q-Chem Inc. Pittsburgh 
 -------------------------------------------------------
 Integral Job Info:
 Integral job number is                      11
 Integral operator is                         1
 short-range coefficients                     0
 long-range coefficients              100000000
 Omega coefficients                           0
 if combine SR and LR in K                    0
 Integral screening is                        0
 Integral computing path is                   2
 max size of driver memory is            800000
 size of driver memory is                776718
 size of scratch memory is             29531563
 max col of scratch BK array              10000
 max len of scratch array in speh3          662
 max len of scratch index in speh4           32
 max int batch size is                      520
 min int batch size is                       52
 fixed nKL is                                31
 max L of basis functions is                  3
 order of int derivative is                   0
 number of shells is                        150
 number of basis is                         478
 number of cartesian basis is               478
 number of contracted shell pairs          9100
 number of primitive shell pairs          26728
 maxK2 (contraction) of shell pair          169
 max number of K2 of shell pair               1
 max number of CS2 of shell pair           1666
 max number of PS2 of shell pair           2626
 mem total for path MDJ                  722092
 -------------------------------------------------------
 Smallest overlap matrix eigenvalue = 1.38E-05

 Q-Chem warning in module stvman/mkSTV.C, line 306:

 Overlap eigenvalue is smaller than square root of threshold
 Use THRESH >= 12 to get rid of this warning


 Scale SEOQF with 1.000000e-01/1.000000e-01/1.000000e-01

 Standard Electronic Orientation quadrupole field applied
 Nucleus-field energy     =     0.0000000140 hartrees
 Guess from superposition of atomic densities
 Warning:  Energy on first SCF cycle will be non-variational
 SAD guess density has 52.000000 electrons

 -----------------------------------------------------------------------
  General SCF calculation program by
  Eric Jon Sundstrom, Paul Horn, Yuezhi Mao, Dmitri Zuev, Alec White,
  David Stuck, Shaama M.S., Shane Yost, Joonho Lee, David Small,
  Daniel Levine, Susi Lehtola, Hugh Burton, Evgeny Epifanovsky
 -----------------------------------------------------------------------
 Hartree-Fock
 using 6 threads for integral computing
 -------------------------------------------------------
 OpenMP Integral computing Module                
 Release: version 1.0, May 2013, Q-Chem Inc. Pittsburgh 
 -------------------------------------------------------
 A restricted SCF calculation will be
 performed using DIIS
 SCF converges when DIIS error is below 1.0e-05
 ---------------------------------------
  Cycle       Energy         DIIS error
 ---------------------------------------
    1    -692.9138013944      1.69e-02  
    2    -692.6251353995      1.66e-03  
    3    -692.6875176804      7.78e-04  
    4    -692.6995290982      1.95e-04  
    5    -692.7007814550      2.57e-05  
    6    -692.7008158838      6.09e-06  Convergence criterion met
 ---------------------------------------
 SCF time:   CPU 352.10s  wall 59.00s 
 SCF   energy in the final basis set =     -692.7008158838
 Total energy in the final basis set =     -692.7008158838
 
 Components of the MP2 correlation energy:
        aaaa  correlation energy =        -0.0712797002 au
        abab  correlation energy =        -0.5797869810 au
        bbbb  correlation energy =        -0.0712797002 au
        non-Brillouin singles    =        -0.0000000000 au

 Total  MP2   correlation energy =                    -0.72234638 au
        MP2         total energy =                  -693.42316227 au
 
 --------------------------------------------------------------
 
                    Orbital Energies (a.u.)
 --------------------------------------------------------------
 
 Alpha MOs
 -- Occupied --
-68.777 -68.776 -15.536 -15.536  -6.123  -6.122  -4.229  -4.229
 -4.229  -4.229  -4.229  -4.229  -1.135  -1.135  -0.724  -0.714
 -0.655  -0.655  -0.557  -0.547  -0.491  -0.490  -0.476  -0.472
 -0.403  -0.400
 -- Virtual --
  0.027   0.031   0.044   0.049   0.051   0.056   0.065   0.069
  0.069   0.076   0.077   0.088   0.091   0.098   0.106   0.117
  0.124   0.139   0.149   0.155   0.160   0.160   0.167   0.171
  0.175   0.177   0.178   0.182   0.183   0.188   0.210   0.220
  0.225   0.231   0.238   0.250   0.256   0.261   0.267   0.275
  0.279   0.281   0.285   0.301   0.303   0.311   0.315   0.321
  0.322   0.330   0.333   0.339   0.342   0.349   0.366   0.369
  0.377   0.381   0.387   0.391   0.397   0.398   0.403   0.410
  0.414   0.418   0.420   0.440   0.446   0.450   0.462   0.466
  0.470   0.474   0.477   0.483   0.495   0.505   0.521   0.529
  0.533   0.545   0.554   0.562   0.569   0.592   0.601   0.609
  0.612   0.614   0.631   0.641   0.651   0.655   0.660   0.664
  0.670   0.677   0.684   0.692   0.696   0.704   0.706   0.721
  0.726   0.731   0.737   0.746   0.754   0.765   0.784   0.798
  0.805   0.836   0.851   0.872   0.882   0.893   0.901   0.909
  0.924   0.930   0.934   0.940   0.946   0.963   0.975   0.978
  0.990   0.998   1.005   1.020   1.023   1.030   1.039   1.042
  1.046   1.057   1.058   1.069   1.076   1.086   1.093   1.095
  1.104   1.113   1.123   1.125   1.135   1.138   1.146   1.156
  1.166   1.174   1.181   1.186   1.204   1.208   1.215   1.219
  1.226   1.228   1.246   1.252   1.257   1.267   1.276   1.287
  1.291   1.307   1.315   1.325   1.333   1.343   1.351   1.356
  1.360   1.363   1.380   1.388   1.392   1.394   1.404   1.410
  1.419   1.429   1.439   1.443   1.446   1.449   1.456   1.474
  1.496   1.502   1.506   1.516   1.535   1.541   1.549   1.560
  1.568   1.572   1.593   1.596   1.600   1.622   1.643   1.668
  1.704   1.721   1.732   1.743   1.768   1.779   1.808   1.813
  1.847   1.860   1.869   1.891   1.904   1.909   1.945   1.954
  1.964   1.977   1.986   2.022   2.028   2.030   2.045   2.058
  2.102   2.108   2.133   2.137   2.159   2.173   2.179   2.218
  2.225   2.241   2.247   2.250   2.259   2.261   2.280   2.289
  2.328   2.339   2.361   2.371   2.392   2.408   2.437   2.450
  2.470   2.485   2.488   2.504   2.524   2.562   2.714   2.721
  2.903   2.916   3.138   3.155   3.190   3.212   3.383   3.473
  3.582   3.625   3.679   3.700   3.722   3.736   3.752   3.763
  3.774   3.803   3.976   3.996   4.007   4.011   4.032   4.059
  4.060   4.097   4.107   4.128   4.147   4.153   4.162   4.165
  4.170   4.173   4.180   4.193   4.203   4.214   4.218   4.236
  4.239   4.242   4.250   4.276   4.282   4.295   4.302   4.319
  4.349   4.352   4.376   4.381   4.405   4.414   4.461   4.464
  4.466   4.480   4.509   4.514   4.520   4.529   4.556   4.561
  4.574   4.591   4.598   4.610   4.652   4.675   4.695   4.717
  4.740   4.746   4.756   4.766   4.803   4.814   4.818   4.821
  4.838   4.845   4.847   4.866   4.926   4.944   4.972   4.991
  5.028   5.033   5.104   5.115   5.132   5.138   5.144   5.151
  5.171   5.187   5.220   5.232   5.315   5.328   5.340   5.341
  5.427   5.447   5.521   5.522   5.578   5.584   5.910   5.914
  5.964   5.965   6.051   6.053   6.188   6.191   6.195   6.196
  6.484   6.491   6.625   6.628   6.738   6.742   7.756   7.763
  8.994   9.030  16.300  16.331
 --------------------------------------------------------------
 
          Ground-State Mulliken Net Atomic Charges

     Atom                 Charge (a.u.)
  ----------------------------------------
      1 Si                    1.186597
      2 H                    -0.304314
      3 H                    -0.244265
      4 H                    -0.265347
      5 N                    -0.595512
      6 H                     0.131667
      7 H                     0.111066
      8 Si                    1.116935
      9 H                    -0.307042
     10 H                    -0.258565
     11 H                    -0.234208
     12 N                    -0.583149
     13 H                     0.115430
     14 H                     0.130704
  ----------------------------------------
  Sum of atomic charges =    -0.000004

 -----------------------------------------------------------------
                    Cartesian Multipole Moments
 -----------------------------------------------------------------
    Charge (ESU x 10^10)
                -0.0000
    Dipole Moment (Debye)
         X       0.1670      Y      -0.1773      Z      -0.2272
       Tot       0.3331
    Quadrupole Moments (Debye-Ang)
        XX     -30.7237     XY      -1.3400     YY     -43.3287
        XZ       6.4871     YZ       3.1366     ZZ     -47.3176
    Octopole Moments (Debye-Ang^2)
       XXX       8.1788    XXY      -0.4609    XYY      -2.6925
       YYY      -0.9641    XXZ      -7.6103    XYZ       3.0436
       YYZ      -1.3404    XZZ       1.1020    YZZ       0.0705
       ZZZ       0.1042
    Hexadecapole Moments (Debye-Ang^3)
      XXXX   -1513.3557   XXXY     -36.9425   XXYY    -297.9192
      XYYY      17.4126   YYYY    -121.4022   XXXZ      97.1175
      XXYZ      46.8628   XYYZ      10.9521   YYYZ       4.5307
      XXZZ    -360.9909   XYZZ       6.6915   YYZZ     -39.8121
      XZZZ       2.4404   YZZZ       4.8300   ZZZZ    -107.2483
 -----------------------------------------------------------------
Archival summary:
1\1\gm4.localdomain\SP\MP2\BasisUnspecified\i2210\xuedong\WedJul320:21:272019WedJul320:21:272019\0\\#,MP2,BasisUnspecified,\\0,1\Si\H,1,1.47755\H,1,1.47948,2,110.628\H,1,1.48525,2,107.811,3,-116.983,0\N,1,1.73233,2,107.477,3,117.153,0\H,5,1.0073,1,118.646,2,-172.556,0\H,5,1.00732,1,118.4,2,50.492,0\H,3,3.00353,1,87.2644,2,-57.6108,0\Si,8,1.47919,3,88.4416,1,-160.671,0\H,9,1.47783,8,110.487,3,56.678,0\H,9,1.48505,8,107.454,3,-60.5726,0\N,9,1.7326,8,107.458,3,173.872,0\H,12,1.00743,9,118.409,8,-170.761,0\H,12,1.00745,9,118.42,8,52.7231,0\\HF=-692.700816\MP2=-693.423162\\@

 Total job time:  365.61s(wall), 2168.28s(cpu) 
 Wed Jul  3 20:21:27 2019

        *************************************************************
        *                                                           *
        *  Thank you very much for using Q-Chem.  Have a nice day.  *
        *                                                           *
        *************************************************************



Running Job 2 of 3 ../qm_inp/SiH3NH2_SiH3NH2_con3.105.qcinp
qchem ../qm_inp/SiH3NH2_SiH3NH2_con3.105.qcinp_17906.1 /scratch/xuedong/qchem17906/ 1
/home/qwang/software/qchem5.1.2/exe/qcprog.exe_s ../qm_inp/SiH3NH2_SiH3NH2_con3.105.qcinp_17906.1 /scratch/xuedong/qchem17906/
Check license passed

                  Welcome to Q-Chem
     A Quantum Leap Into The Future Of Chemistry


 Q-Chem 5.1, Q-Chem, Inc., Pleasanton, CA (2018)

 Yihan Shao,  Zhengting Gan,  E. Epifanovsky,  A. T. B. Gilbert,  M. Wormit,  
 J. Kussmann,  A. W. Lange,  A. Behn,  Jia Deng,  Xintian Feng,  D. Ghosh,  
 M. Goldey,  P. R. Horn,  L. D. Jacobson,  I. Kaliman,  T. Kus,  A. Landau,  
 Jie Liu,  E. I. Proynov,  R. M. Richard,  R. P. Steele,  E. J. Sundstrom,  
 H. L. Woodcock III,  P. M. Zimmerman,  D. Zuev,  B. Albrecht,  E. Alguire,  
 S. A. Baeppler,  D. Barton,  Z. Benda,  Y. A. Bernard,  E. J. Berquist,  
 K. B. Bravaya,  H. Burton,  D. Casanova,  Chun-Min Chang,  Yunqing Chen,  
 A. Chien,  K. D. Closser,  M. P. Coons,  S. Coriani,  S. Dasgupta,  
 A. L. Dempwolff,  M. Diedenhofen,  Hainam Do,  R. G. Edgar,  Po-Tung Fang,  
 S. Faraji,  S. Fatehi,  Qingguo Feng,  K. D. Fenk,  J. Fosso-Tande,  
 J. Gayvert,  Qinghui Ge,  A. Ghysels,  G. Gidofalvi,  J. Gomes,  
 J. Gonthier,  A. Gunina,  D. Hait,  M. W. D. Hanson-Heine,  
 P. H. P. Harbach,  A. W. Hauser,  J. E. Herr,  E. G. Hohenstein,  
 Z. C. Holden,  Kerwin Hui,  B. C. Huynh,  T.-C. Jagau,  Hyunjun Ji,  
 B. Kaduk,  K. Khistyaev,  Jaehoon Kim,  P. Klunzinger,  K. Koh,  
 D. Kosenkov,  L. Koulias,  T. Kowalczyk,  C. M. Krauter,  A. Kunitsa,  
 Ka Un Lao,  A. Laurent,  K. V. Lawler,  Joonho Lee,  D. Lefrancois,  
 S. Lehtola,  D. S. Levine,  Yi-Pei Li,  You-Sheng Lin,  Fenglai Liu,  
 E. Livshits,  A. Luenser,  P. Manohar,  E. Mansoor,  S. F. Manzer,  
 Shan-Ping Mao,  Yuezhi Mao,  N. Mardirossian,  A. V. Marenich,  
 T. Markovich,  L. A. Martinez-Martinez,  S. A. Maurer,  N. J. Mayhall,  
 S. C. McKenzie,  J.-M. Mewes,  A. F. Morrison,  J. W. Mullinax,  K. Nanda,  
 T. S. Nguyen-Beck,  R. Olivares-Amaya,  J. A. Parkhill,  T. M. Perrine,  
 F. Plasser,  P. Pokhilko,  S. Prager,  A. Prociuk,  E. Ramos,  D. R. Rehn,  
 F. Rob,  M. Schneider,  N. Sergueev,  S. M. Sharada,  S. Sharma,  
 D. W. Small,  T. Stauch,  T. Stein,  Yu-Chuan Su,  A. J. W. Thom,  
 A. Tkatchenko,  T. Tsuchimochi,  N. M. Tubman,  L. Vogt,  M. L. Vidal,  
 O. Vydrov,  M. A. Watson,  J. Wenzel,  M. de Wergifosse,  T. A. Wesolowski,  
 A. White,  J. Witte,  A. Yamada,  Jun Yang,  K. Yao,  S. Yeganeh,  
 S. R. Yost,  Zhi-Qiang You,  A. Zech,  Igor Ying Zhang,  Xing Zhang,  
 Yan Zhao,  Ying Zhu,  B. R. Brooks,  G. K. L. Chan,  C. J. Cramer,  
 M. S. Gordon,  W. J. Hehre,  A. Klamt,  M. W. Schmidt,  C. D. Sherrill,  
 D. G. Truhlar,  A. Aspuru-Guzik,  R. Baer,  A. T. Bell,  N. A. Besley,  
 Jeng-Da Chai,  A. E. DePrince, III,  R. A. DiStasio Jr.,  A. Dreuw,  
 B. D. Dunietz,  T. R. Furlani,  Chao-Ping Hsu,  Yousung Jung,  Jing Kong,  
 D. S. Lambrecht,  WanZhen Liang,  C. Ochsenfeld,  V. A. Rassolov,  
 L. V. Slipchenko,  J. E. Subotnik,  T. Van Voorhis,  J. M. Herbert,  
 A. I. Krylov,  P. M. W. Gill,  M. Head-Gordon

 Contributors to earlier versions of Q-Chem not listed above: 
 R. D. Adamson,  B. Austin,  J. Baker,  G. J. O. Beran,  K. Brandhorst,  
 S. T. Brown,  E. F. C. Byrd,  A. K. Chakraborty,  C.-L. Cheng,  
 Siu Hung Chien,  D. M. Chipman,  D. L. Crittenden,  H. Dachsel,  
 R. J. Doerksen,  A. D. Dutoi,  L. Fusti-Molnar,  W. A. Goddard III,  
 A. Golubeva-Zadorozhnaya,  S. R. Gwaltney,  G. Hawkins,  A. Heyden,  
 S. Hirata,  G. Kedziora,  F. J. Keil,  C. Kelley,  Jihan Kim,  R. A. King,  
 R. Z. Khaliullin,  P. P. Korambath,  W. Kurlancheek,  A. M. Lee,  M. S. Lee,  
 S. V. Levchenko,  Ching Yeh Lin,  D. Liotard,  R. C. Lochan,  I. Lotan,  
 P. E. Maslen,  N. Nair,  D. P. O'Neill,  D. Neuhauser,  E. Neuscamman,  
 C. M. Oana,  R. Olson,  B. Peters,  R. Peverati,  P. A. Pieniazek,  
 Y. M. Rhee,  J. Ritchie,  M. A. Rohrdanz,  E. Rosta,  N. J. Russ,  
 H. F. Schaefer III,  N. E. Schultz,  N. Shenvi,  A. C. Simmonett,  A. Sodt,  
 D. Stuck,  K. S. Thanthiriwatte,  V. Vanovschi,  Tao Wang,  A. Warshel,  
 C. F. Williams,  Q. Wu,  X. Xu,  W. Zhang

 Please cite Q-Chem as follows:
 Y. Shao et al., Mol. Phys. 113, 184-215 (2015)
 DOI: 10.1080/00268976.2014.952696

 Q-Chem 5.1.2 for Intel X86 EM64T Linux

 Parts of Q-Chem use Armadillo 8.300.2 (Tropical Shenanigans).
 http://arma.sourceforge.net/

 Q-Chem begins on Wed Jul  3 20:21:27 2019  

Host: 
0

     Scratch files written to /scratch/xuedong/qchem17906//
 Dec218 |scratch|qcdevops|jenkins|workspace|build_RNUM 6581   
Processing $rem in /home/qwang/software/qchem5.1.2/config/preferences.
 MEM_TOTAL  4000 
Core orbitals will be frozen
Input Ideriv = 1
Curr. Ideriv = -1
Max.  Ideriv = 1

Checking the input file for inconsistencies... 	...done.

--------------------------------------------------------------
User input:
--------------------------------------------------------------

$molecule
0 1
Si     1.924810978     0.221250999     0.126279543
H     1.412655312     0.307098559     1.517792385
H     1.133853934    -0.817922695    -0.568974842
H     1.726171862     1.539629336    -0.510559482
N     3.598001176    -0.193061537    -0.046238154
H     3.898337608    -1.114121400     0.229631138
H     4.290301474     0.485203856     0.228290528
@Si   -2.126252677    -0.361684052    -0.206855633
@H    -1.893444655    -0.804388720    -1.605135628
@H    -1.701584127    -1.458094810     0.688429460
@H    -1.298317542     0.842752968     0.020871680
@N    -3.760239821     0.046229544     0.200083141
@H    -4.442922378    -0.693482455     0.241076871
@H    -4.171268191     0.861376391    -0.225991379
$end

$rem
BASIS = aug-cc-pVTZ
JOB_TYPE  =  SP
METHOD  =  MP2
SCF_MAX_CYCLES  =  200
$end

--------------------------------------------------------------
 ----------------------------------------------------------------
             Standard Nuclear Orientation (Angstroms)
    I     Atom           X                Y                Z
 ----------------------------------------------------------------
    1      Si      1.9248109780     0.2212509990     0.1262795430
    2      H       1.4126553120     0.3070985590     1.5177923850
    3      H       1.1338539340    -0.8179226950    -0.5689748420
    4      H       1.7261718620     1.5396293360    -0.5105594820
    5      N       3.5980011760    -0.1930615370    -0.0462381540
    6      H       3.8983376080    -1.1141214000     0.2296311380
    7      H       4.2903014740     0.4852038560     0.2282905280
    8      GH     -2.1262526770    -0.3616840520    -0.2068556330
    9      GH     -1.8934446550    -0.8043887200    -1.6051356280
   10      GH     -1.7015841270    -1.4580948100     0.6884294600
   11      GH     -1.2983175420     0.8427529680     0.0208716800
   12      GH     -3.7602398210     0.0462295440     0.2000831410
   13      GH     -4.4429223780    -0.6934824550     0.2410768710
   14      GH     -4.1712681910     0.8613763910    -0.2259913790
 ----------------------------------------------------------------
 Nuclear Repulsion Energy =    64.7143342273 hartrees
 There are       13 alpha and       13 beta electrons
 Requested basis set is aug-cc-pVTZ
 There are 150 shells and 422 basis functions

 Total QAlloc Memory Limit   4000 MB
 Mega-Array Size       188 MB
 MEM_STATIC part       192 MB

                       Distance Matrix (Angstroms)
             Si(  1)   H (  2)   H (  3)   H (  4)   N (  5)   H (  6)
   H (  2)  1.485255
   H (  3)  1.479484  2.387048
   H (  4)  1.477546  2.394084  2.431523
   N (  5)  1.732334  2.733512  2.595328  2.592597
   H (  6)  2.385101  3.139720  2.892728  3.508358  1.007302
   H (  7)  2.382357  3.158383  3.506698  2.869229  1.007318  1.646657
   GH(  8)  4.106325  3.993188  3.311734  4.306786  5.728989  6.087066
   GH(  9)  4.316111  4.681707  3.199742  4.449061  5.741068  6.083342
   GH( 10)  4.035710  3.674539  3.167111  4.708868  5.497786  5.629204
   GH( 11)  3.284194  3.142781  3.003535  3.148903  5.005133  5.556812
   GH( 12)  5.688223  5.344460  5.028952  5.730268  7.366250  7.746037
   GH( 13)  6.434123  6.076097  5.636675  6.603747  8.061602  8.351867
   GH( 14)  6.139710  5.876071  5.575124  5.943131  7.842557  8.320380
             H (  7)   GH(  8)   GH(  9)   GH( 10)   GH( 11)   GH( 12)
   GH(  8)  6.486813
   GH(  9)  6.577478  1.485050
   GH( 10)  6.315919  1.477835  2.392610
   GH( 11)  5.603885  1.479191  2.389802  2.429436
   GH( 12)  8.062550  1.732601  2.732634  2.596062  2.593767
   GH( 13)  8.812415  2.382791  3.149704  2.880919  3.506715  1.007427
   GH( 14)  8.482101  2.382925  3.140906  3.509338  2.883597  1.007446
             GH( 13)
   GH( 14)  1.646066
 
 A cutoff of  1.0D-08 yielded   9100 shell pairs
 There are     69076 function pairs (     88150 Cartesian)
 
 -------------------------------------------------------
 OpenMP Integral Computing Module                       
 Release: version 1.0, May 2013, Q-Chem Inc. Pittsburgh 
 -------------------------------------------------------
 Integral Job Info:
 Integral job number is                      11
 Integral operator is                         1
 short-range coefficients                     0
 long-range coefficients              100000000
 Omega coefficients                           0
 if combine SR and LR in K                    0
 Integral screening is                        0
 Integral computing path is                   2
 max size of driver memory is            800000
 size of driver memory is                776718
 size of scratch memory is             29531563
 max col of scratch BK array              10000
 max len of scratch array in speh3          662
 max len of scratch index in speh4           32
 max int batch size is                      520
 min int batch size is                       52
 fixed nKL is                                31
 max L of basis functions is                  3
 order of int derivative is                   0
 number of shells is                        150
 number of basis is                         478
 number of cartesian basis is               478
 number of contracted shell pairs          9100
 number of primitive shell pairs          26728
 maxK2 (contraction) of shell pair          169
 max number of K2 of shell pair               1
 max number of CS2 of shell pair           1666
 max number of PS2 of shell pair           2626
 mem total for path MDJ                  722092
 -------------------------------------------------------
 Smallest overlap matrix eigenvalue = 1.38E-05

 Q-Chem warning in module stvman/mkSTV.C, line 306:

 Overlap eigenvalue is smaller than square root of threshold
 Use THRESH >= 12 to get rid of this warning


 Scale SEOQF with 1.000000e-01/1.000000e-01/1.000000e-01

 Standard Electronic Orientation quadrupole field applied
 Nucleus-field energy     =     0.0000000066 hartrees
 Guess from superposition of atomic densities
 Warning:  Energy on first SCF cycle will be non-variational
 SAD guess density has 26.000000 electrons

 -----------------------------------------------------------------------
  General SCF calculation program by
  Eric Jon Sundstrom, Paul Horn, Yuezhi Mao, Dmitri Zuev, Alec White,
  David Stuck, Shaama M.S., Shane Yost, Joonho Lee, David Small,
  Daniel Levine, Susi Lehtola, Hugh Burton, Evgeny Epifanovsky
 -----------------------------------------------------------------------
 Hartree-Fock
 using 6 threads for integral computing
 -------------------------------------------------------
 OpenMP Integral computing Module                
 Release: version 1.0, May 2013, Q-Chem Inc. Pittsburgh 
 -------------------------------------------------------
 A restricted SCF calculation will be
 performed using DIIS
 SCF converges when DIIS error is below 1.0e-05
 ---------------------------------------
  Cycle       Energy         DIIS error
 ---------------------------------------
    1    -346.4444446429      1.19e-02  
    2    -346.3136253237      1.17e-03  
    3    -346.3442423212      5.50e-04  
    4    -346.3502240421      1.37e-04  
    5    -346.3508326560      1.80e-05  
    6    -346.3508496154      4.33e-06  Convergence criterion met
 ---------------------------------------
 SCF time:   CPU 324.30s  wall 54.00s 
 SCF   energy in the final basis set =     -346.3508496154
 Total energy in the final basis set =     -346.3508496154
 
 Components of the MP2 correlation energy:
        aaaa  correlation energy =        -0.0353235488 au
        abab  correlation energy =        -0.2892305180 au
        bbbb  correlation energy =        -0.0353235488 au
        non-Brillouin singles    =        -0.0000000000 au

 Total  MP2   correlation energy =                    -0.35987762 au
        MP2         total energy =                  -346.71072723 au
 
 --------------------------------------------------------------
 
                    Orbital Energies (a.u.)
 --------------------------------------------------------------
 
 Alpha MOs
 -- Occupied --
-68.778 -15.538  -6.125  -4.231  -4.231  -4.231  -1.137  -0.721
 -0.657  -0.554  -0.492  -0.476  -0.403
 -- Virtual --
  0.023   0.029   0.041   0.047   0.049   0.051   0.065   0.066
  0.068   0.072   0.075   0.087   0.090   0.091   0.098   0.105
  0.117   0.128   0.141   0.148   0.151   0.158   0.163   0.167
  0.172   0.174   0.180   0.189   0.191   0.205   0.210   0.217
  0.222   0.231   0.240   0.241   0.246   0.259   0.268   0.273
  0.277   0.281   0.291   0.298   0.307   0.312   0.318   0.327
  0.333   0.337   0.339   0.343   0.355   0.359   0.368   0.370
  0.376   0.382   0.385   0.389   0.398   0.403   0.409   0.414
  0.424   0.429   0.441   0.446   0.452   0.458   0.459   0.463
  0.466   0.472   0.483   0.491   0.497   0.504   0.521   0.527
  0.532   0.554   0.569   0.573   0.589   0.600   0.612   0.616
  0.631   0.635   0.646   0.651   0.661   0.668   0.681   0.681
  0.690   0.698   0.702   0.715   0.729   0.730   0.739   0.743
  0.754   0.768   0.775   0.781   0.794   0.801   0.807   0.817
  0.820   0.834   0.851   0.863   0.874   0.878   0.910   0.921
  0.929   0.936   0.945   0.951   0.958   0.972   0.977   0.988
  1.003   1.021   1.022   1.027   1.033   1.046   1.050   1.052
  1.064   1.077   1.081   1.091   1.099   1.109   1.117   1.119
  1.122   1.139   1.142   1.146   1.160   1.167   1.174   1.175
  1.187   1.191   1.205   1.210   1.211   1.224   1.225   1.229
  1.239   1.256   1.266   1.275   1.280   1.301   1.305   1.313
  1.318   1.333   1.337   1.342   1.357   1.361   1.368   1.374
  1.397   1.402   1.410   1.415   1.421   1.437   1.441   1.451
  1.460   1.471   1.485   1.494   1.518   1.529   1.532   1.541
  1.552   1.557   1.566   1.572   1.581   1.589   1.599   1.623
  1.627   1.636   1.652   1.673   1.689   1.697   1.729   1.743
  1.750   1.756   1.800   1.809   1.816   1.829   1.864   1.875
  1.895   1.906   1.920   1.928   1.951   1.957   1.972   1.983
  1.995   2.019   2.038   2.045   2.050   2.080   2.085   2.106
  2.135   2.151   2.164   2.177   2.179   2.222   2.235   2.244
  2.259   2.270   2.283   2.327   2.331   2.355   2.366   2.393
  2.409   2.421   2.442   2.454   2.487   2.498   2.513   2.525
  2.559   2.604   2.686   2.714   2.719   2.820   2.844   2.850
  2.870   2.910   2.971   3.004   3.078   3.120   3.137   3.149
  3.207   3.261   3.421   3.545   3.610   3.703   3.717   3.752
  3.766   3.775   3.824   3.982   4.012   4.049   4.073   4.088
  4.111   4.133   4.156   4.163   4.173   4.200   4.220   4.241
  4.249   4.262   4.273   4.289   4.302   4.308   4.343   4.347
  4.374   4.381   4.402   4.421   4.434   4.440   4.463   4.470
  4.492   4.506   4.514   4.523   4.537   4.553   4.563   4.570
  4.579   4.603   4.611   4.630   4.646   4.657   4.673   4.683
  4.695   4.717   4.748   4.756   4.771   4.802   4.818   4.818
  4.845   4.852   4.934   4.954   4.971   4.989   5.018   5.036
  5.041   5.095   5.106   5.113   5.136   5.140   5.157   5.178
  5.194   5.205   5.221   5.273   5.291   5.313   5.329   5.337
  5.341   5.389   5.396   5.430   5.441   5.474   5.520   5.565
  5.586   5.751   5.754   5.909   5.961   5.978   6.027   6.048
  6.089   6.156   6.187   6.194   6.208   6.218   6.376   6.483
  6.624   6.631   6.642   6.739   6.832   7.431   7.500   7.516
  7.609   7.759   7.820   8.106   9.002   9.294   9.353  10.108
 10.956  11.978  15.022  16.317  20.366  20.466  21.042  56.869
107.013
 --------------------------------------------------------------
 
          Ground-State Mulliken Net Atomic Charges

     Atom                 Charge (a.u.)
  ----------------------------------------
      1 Si                    1.142628
      2 H                    -0.305914
      3 H                    -0.236689
      4 H                    -0.266042
      5 N                    -0.592364
      6 H                     0.132511
      7 H                     0.111064
      8 GH                    0.008260
      9 GH                    0.000261
     10 GH                    0.000176
     11 GH                    0.008888
     12 GH                   -0.002278
     13 GH                   -0.000348
     14 GH                   -0.000154
  ----------------------------------------
  Sum of atomic charges =    -0.000001

 -----------------------------------------------------------------
                    Cartesian Multipole Moments
 -----------------------------------------------------------------
    Charge (ESU x 10^10)
                -0.0000
    Dipole Moment (Debye)
         X       0.8921      Y      -0.2060      Z       0.8495
       Tot       1.2490
    Quadrupole Moments (Debye-Ang)
        XX     -16.2229     XY      -0.5081     YY     -20.8218
        XZ       3.9920     YZ      -0.3964     ZZ     -24.1265
    Octopole Moments (Debye-Ang^2)
       XXX    -127.0654    XXY      -2.2556    XYY     -45.7938
       YYY      -9.9107    XXZ      15.0153    XYZ      -0.9953
       YYZ      -0.2954    XZZ     -58.0835    YZZ      -2.3339
       ZZZ      -7.6266
    Hexadecapole Moments (Debye-Ang^3)
      XXXX    -731.1264   XXXY       0.2388   XXYY    -127.8582
      XYYY     -15.2435   YYYY     -57.6157   XXXZ      59.7073
      XXYZ      -3.7080   XYYZ       1.2964   YYYZ      -1.4907
      XXZZ    -174.8822   XYZZ      -1.3271   YYZZ     -18.5389
      XZZZ     -12.2772   YZZZ      -2.2059   ZZZZ     -54.6938
 -----------------------------------------------------------------
Archival summary:
1\1\gm4.localdomain\SP\MP2\BasisUnspecified\i115h7\xuedong\WedJul320:24:552019WedJul320:24:552019\0\\#,MP2,BasisUnspecified,\\0,1\Si\H,1,1.47755\H,1,1.47948,2,110.628\H,1,1.48525,2,107.811,3,-116.983,0\N,1,1.73233,2,107.477,3,117.153,0\H,5,1.0073,1,118.646,2,-172.556,0\H,5,1.00732,1,118.4,2,50.492,0\Gh,3,3.00353,1,87.2644,2,-57.6108,0\Gh,8,1.47919,3,88.4416,1,-160.671,0\Gh,9,1.47783,8,110.487,3,56.678,0\Gh,9,1.48505,8,107.454,3,-60.5726,0\Gh,9,1.7326,8,107.458,3,173.872,0\Gh,12,1.00743,9,118.409,8,-170.761,0\Gh,12,1.00745,9,118.42,8,52.7231,0\\HF=-346.35085\MP2=-346.710727\\@

 Total job time:  207.80s(wall), 1239.51s(cpu) 
 Wed Jul  3 20:24:55 2019

        *************************************************************
        *                                                           *
        *  Thank you very much for using Q-Chem.  Have a nice day.  *
        *                                                           *
        *************************************************************



Running Job 3 of 3 ../qm_inp/SiH3NH2_SiH3NH2_con3.105.qcinp
qchem ../qm_inp/SiH3NH2_SiH3NH2_con3.105.qcinp_17906.2 /scratch/xuedong/qchem17906/ 1
/home/qwang/software/qchem5.1.2/exe/qcprog.exe_s ../qm_inp/SiH3NH2_SiH3NH2_con3.105.qcinp_17906.2 /scratch/xuedong/qchem17906/
Check license passed

                  Welcome to Q-Chem
     A Quantum Leap Into The Future Of Chemistry


 Q-Chem 5.1, Q-Chem, Inc., Pleasanton, CA (2018)

 Yihan Shao,  Zhengting Gan,  E. Epifanovsky,  A. T. B. Gilbert,  M. Wormit,  
 J. Kussmann,  A. W. Lange,  A. Behn,  Jia Deng,  Xintian Feng,  D. Ghosh,  
 M. Goldey,  P. R. Horn,  L. D. Jacobson,  I. Kaliman,  T. Kus,  A. Landau,  
 Jie Liu,  E. I. Proynov,  R. M. Richard,  R. P. Steele,  E. J. Sundstrom,  
 H. L. Woodcock III,  P. M. Zimmerman,  D. Zuev,  B. Albrecht,  E. Alguire,  
 S. A. Baeppler,  D. Barton,  Z. Benda,  Y. A. Bernard,  E. J. Berquist,  
 K. B. Bravaya,  H. Burton,  D. Casanova,  Chun-Min Chang,  Yunqing Chen,  
 A. Chien,  K. D. Closser,  M. P. Coons,  S. Coriani,  S. Dasgupta,  
 A. L. Dempwolff,  M. Diedenhofen,  Hainam Do,  R. G. Edgar,  Po-Tung Fang,  
 S. Faraji,  S. Fatehi,  Qingguo Feng,  K. D. Fenk,  J. Fosso-Tande,  
 J. Gayvert,  Qinghui Ge,  A. Ghysels,  G. Gidofalvi,  J. Gomes,  
 J. Gonthier,  A. Gunina,  D. Hait,  M. W. D. Hanson-Heine,  
 P. H. P. Harbach,  A. W. Hauser,  J. E. Herr,  E. G. Hohenstein,  
 Z. C. Holden,  Kerwin Hui,  B. C. Huynh,  T.-C. Jagau,  Hyunjun Ji,  
 B. Kaduk,  K. Khistyaev,  Jaehoon Kim,  P. Klunzinger,  K. Koh,  
 D. Kosenkov,  L. Koulias,  T. Kowalczyk,  C. M. Krauter,  A. Kunitsa,  
 Ka Un Lao,  A. Laurent,  K. V. Lawler,  Joonho Lee,  D. Lefrancois,  
 S. Lehtola,  D. S. Levine,  Yi-Pei Li,  You-Sheng Lin,  Fenglai Liu,  
 E. Livshits,  A. Luenser,  P. Manohar,  E. Mansoor,  S. F. Manzer,  
 Shan-Ping Mao,  Yuezhi Mao,  N. Mardirossian,  A. V. Marenich,  
 T. Markovich,  L. A. Martinez-Martinez,  S. A. Maurer,  N. J. Mayhall,  
 S. C. McKenzie,  J.-M. Mewes,  A. F. Morrison,  J. W. Mullinax,  K. Nanda,  
 T. S. Nguyen-Beck,  R. Olivares-Amaya,  J. A. Parkhill,  T. M. Perrine,  
 F. Plasser,  P. Pokhilko,  S. Prager,  A. Prociuk,  E. Ramos,  D. R. Rehn,  
 F. Rob,  M. Schneider,  N. Sergueev,  S. M. Sharada,  S. Sharma,  
 D. W. Small,  T. Stauch,  T. Stein,  Yu-Chuan Su,  A. J. W. Thom,  
 A. Tkatchenko,  T. Tsuchimochi,  N. M. Tubman,  L. Vogt,  M. L. Vidal,  
 O. Vydrov,  M. A. Watson,  J. Wenzel,  M. de Wergifosse,  T. A. Wesolowski,  
 A. White,  J. Witte,  A. Yamada,  Jun Yang,  K. Yao,  S. Yeganeh,  
 S. R. Yost,  Zhi-Qiang You,  A. Zech,  Igor Ying Zhang,  Xing Zhang,  
 Yan Zhao,  Ying Zhu,  B. R. Brooks,  G. K. L. Chan,  C. J. Cramer,  
 M. S. Gordon,  W. J. Hehre,  A. Klamt,  M. W. Schmidt,  C. D. Sherrill,  
 D. G. Truhlar,  A. Aspuru-Guzik,  R. Baer,  A. T. Bell,  N. A. Besley,  
 Jeng-Da Chai,  A. E. DePrince, III,  R. A. DiStasio Jr.,  A. Dreuw,  
 B. D. Dunietz,  T. R. Furlani,  Chao-Ping Hsu,  Yousung Jung,  Jing Kong,  
 D. S. Lambrecht,  WanZhen Liang,  C. Ochsenfeld,  V. A. Rassolov,  
 L. V. Slipchenko,  J. E. Subotnik,  T. Van Voorhis,  J. M. Herbert,  
 A. I. Krylov,  P. M. W. Gill,  M. Head-Gordon

 Contributors to earlier versions of Q-Chem not listed above: 
 R. D. Adamson,  B. Austin,  J. Baker,  G. J. O. Beran,  K. Brandhorst,  
 S. T. Brown,  E. F. C. Byrd,  A. K. Chakraborty,  C.-L. Cheng,  
 Siu Hung Chien,  D. M. Chipman,  D. L. Crittenden,  H. Dachsel,  
 R. J. Doerksen,  A. D. Dutoi,  L. Fusti-Molnar,  W. A. Goddard III,  
 A. Golubeva-Zadorozhnaya,  S. R. Gwaltney,  G. Hawkins,  A. Heyden,  
 S. Hirata,  G. Kedziora,  F. J. Keil,  C. Kelley,  Jihan Kim,  R. A. King,  
 R. Z. Khaliullin,  P. P. Korambath,  W. Kurlancheek,  A. M. Lee,  M. S. Lee,  
 S. V. Levchenko,  Ching Yeh Lin,  D. Liotard,  R. C. Lochan,  I. Lotan,  
 P. E. Maslen,  N. Nair,  D. P. O'Neill,  D. Neuhauser,  E. Neuscamman,  
 C. M. Oana,  R. Olson,  B. Peters,  R. Peverati,  P. A. Pieniazek,  
 Y. M. Rhee,  J. Ritchie,  M. A. Rohrdanz,  E. Rosta,  N. J. Russ,  
 H. F. Schaefer III,  N. E. Schultz,  N. Shenvi,  A. C. Simmonett,  A. Sodt,  
 D. Stuck,  K. S. Thanthiriwatte,  V. Vanovschi,  Tao Wang,  A. Warshel,  
 C. F. Williams,  Q. Wu,  X. Xu,  W. Zhang

 Please cite Q-Chem as follows:
 Y. Shao et al., Mol. Phys. 113, 184-215 (2015)
 DOI: 10.1080/00268976.2014.952696

 Q-Chem 5.1.2 for Intel X86 EM64T Linux

 Parts of Q-Chem use Armadillo 8.300.2 (Tropical Shenanigans).
 http://arma.sourceforge.net/

 Q-Chem begins on Wed Jul  3 20:24:55 2019  

Host: 
0

     Scratch files written to /scratch/xuedong/qchem17906//
 Dec218 |scratch|qcdevops|jenkins|workspace|build_RNUM 6581   
Processing $rem in /home/qwang/software/qchem5.1.2/config/preferences.
 MEM_TOTAL  4000 
Core orbitals will be frozen
Input Ideriv = 1
Curr. Ideriv = -1
Max.  Ideriv = 1

Checking the input file for inconsistencies... 	...done.

--------------------------------------------------------------
User input:
--------------------------------------------------------------

$molecule
0 1
@Si     1.924810978     0.221250999     0.126279543
@H      1.412655312     0.307098559     1.517792385
@H      1.133853934    -0.817922695    -0.568974842
@H      1.726171862     1.539629336    -0.510559482
@N      3.598001176    -0.193061537    -0.046238154
@H      3.898337608    -1.114121400     0.229631138
@H      4.290301474     0.485203856     0.228290528
Si    -2.126252677    -0.361684052    -0.206855633
H     -1.893444655    -0.804388720    -1.605135628
H     -1.701584127    -1.458094810     0.688429460
H     -1.298317542     0.842752968     0.020871680
N     -3.760239821     0.046229544     0.200083141
H     -4.442922378    -0.693482455     0.241076871
H     -4.171268191     0.861376391    -0.225991379
$end

$rem
BASIS = aug-cc-pVTZ
JOB_TYPE  =  SP
METHOD  =  MP2
SCF_MAX_CYCLES  =  200
$end

--------------------------------------------------------------
 ----------------------------------------------------------------
             Standard Nuclear Orientation (Angstroms)
    I     Atom           X                Y                Z
 ----------------------------------------------------------------
    1      GH      1.9248109780     0.2212509990     0.1262795430
    2      GH      1.4126553120     0.3070985590     1.5177923850
    3      GH      1.1338539340    -0.8179226950    -0.5689748420
    4      GH      1.7261718620     1.5396293360    -0.5105594820
    5      GH      3.5980011760    -0.1930615370    -0.0462381540
    6      GH      3.8983376080    -1.1141214000     0.2296311380
    7      GH      4.2903014740     0.4852038560     0.2282905280
    8      Si     -2.1262526770    -0.3616840520    -0.2068556330
    9      H      -1.8934446550    -0.8043887200    -1.6051356280
   10      H      -1.7015841270    -1.4580948100     0.6884294600
   11      H      -1.2983175420     0.8427529680     0.0208716800
   12      N      -3.7602398210     0.0462295440     0.2000831410
   13      H      -4.4429223780    -0.6934824550     0.2410768710
   14      H      -4.1712681910     0.8613763910    -0.2259913790
 ----------------------------------------------------------------
 Nuclear Repulsion Energy =    64.7115287297 hartrees
 There are       13 alpha and       13 beta electrons
 Requested basis set is aug-cc-pVTZ
 There are 150 shells and 422 basis functions

 Total QAlloc Memory Limit   4000 MB
 Mega-Array Size       188 MB
 MEM_STATIC part       192 MB

                       Distance Matrix (Angstroms)
             GH(  1)   GH(  2)   GH(  3)   GH(  4)   GH(  5)   GH(  6)
   GH(  2)  1.485255
   GH(  3)  1.479484  2.387048
   GH(  4)  1.477546  2.394084  2.431523
   GH(  5)  1.732334  2.733512  2.595328  2.592597
   GH(  6)  2.385101  3.139720  2.892728  3.508358  1.007302
   GH(  7)  2.382357  3.158383  3.506698  2.869229  1.007318  1.646657
   Si(  8)  4.106325  3.993188  3.311734  4.306786  5.728989  6.087066
   H (  9)  4.316111  4.681707  3.199742  4.449061  5.741068  6.083342
   H ( 10)  4.035710  3.674539  3.167111  4.708868  5.497786  5.629204
   H ( 11)  3.284194  3.142781  3.003535  3.148903  5.005133  5.556812
   N ( 12)  5.688223  5.344460  5.028952  5.730268  7.366250  7.746037
   H ( 13)  6.434123  6.076097  5.636675  6.603747  8.061602  8.351867
   H ( 14)  6.139710  5.876071  5.575124  5.943131  7.842557  8.320380
             GH(  7)   Si(  8)   H (  9)   H ( 10)   H ( 11)   N ( 12)
   Si(  8)  6.486813
   H (  9)  6.577478  1.485050
   H ( 10)  6.315919  1.477835  2.392610
   H ( 11)  5.603885  1.479191  2.389802  2.429436
   N ( 12)  8.062550  1.732601  2.732634  2.596062  2.593767
   H ( 13)  8.812415  2.382791  3.149704  2.880919  3.506715  1.007427
   H ( 14)  8.482101  2.382925  3.140906  3.509338  2.883597  1.007446
             H ( 13)
   H ( 14)  1.646066
 
 A cutoff of  1.0D-08 yielded   9100 shell pairs
 There are     69076 function pairs (     88150 Cartesian)
 
 -------------------------------------------------------
 OpenMP Integral Computing Module                       
 Release: version 1.0, May 2013, Q-Chem Inc. Pittsburgh 
 -------------------------------------------------------
 Integral Job Info:
 Integral job number is                      11
 Integral operator is                         1
 short-range coefficients                     0
 long-range coefficients              100000000
 Omega coefficients                           0
 if combine SR and LR in K                    0
 Integral screening is                        0
 Integral computing path is                   2
 max size of driver memory is            800000
 size of driver memory is                776718
 size of scratch memory is             29531563
 max col of scratch BK array              10000
 max len of scratch array in speh3          662
 max len of scratch index in speh4           32
 max int batch size is                      520
 min int batch size is                       52
 fixed nKL is                                31
 max L of basis functions is                  3
 order of int derivative is                   0
 number of shells is                        150
 number of basis is                         478
 number of cartesian basis is               478
 number of contracted shell pairs          9100
 number of primitive shell pairs          26728
 maxK2 (contraction) of shell pair          169
 max number of K2 of shell pair               1
 max number of CS2 of shell pair           1666
 max number of PS2 of shell pair           2626
 mem total for path MDJ                  722092
 -------------------------------------------------------
 Smallest overlap matrix eigenvalue = 1.38E-05

 Q-Chem warning in module stvman/mkSTV.C, line 306:

 Overlap eigenvalue is smaller than square root of threshold
 Use THRESH >= 12 to get rid of this warning


 Scale SEOQF with 1.000000e-01/1.000000e-01/1.000000e-01

 Standard Electronic Orientation quadrupole field applied
 Nucleus-field energy     =     0.0000000074 hartrees
 Guess from superposition of atomic densities
 Warning:  Energy on first SCF cycle will be non-variational
 SAD guess density has 26.000000 electrons

 -----------------------------------------------------------------------
  General SCF calculation program by
  Eric Jon Sundstrom, Paul Horn, Yuezhi Mao, Dmitri Zuev, Alec White,
  David Stuck, Shaama M.S., Shane Yost, Joonho Lee, David Small,
  Daniel Levine, Susi Lehtola, Hugh Burton, Evgeny Epifanovsky
 -----------------------------------------------------------------------
 Hartree-Fock
 using 6 threads for integral computing
 -------------------------------------------------------
 OpenMP Integral computing Module                
 Release: version 1.0, May 2013, Q-Chem Inc. Pittsburgh 
 -------------------------------------------------------
 A restricted SCF calculation will be
 performed using DIIS
 SCF converges when DIIS error is below 1.0e-05
 ---------------------------------------
  Cycle       Energy         DIIS error
 ---------------------------------------
    1    -346.4442421769      1.19e-02  
    2    -346.3136110461      1.17e-03  
    3    -346.3442368469      5.50e-04  
    4    -346.3502184473      1.37e-04  
    5    -346.3508272596      1.80e-05  
    6    -346.3508443023      4.34e-06  Convergence criterion met
 ---------------------------------------
 SCF time:   CPU 326.40s  wall 54.00s 
 SCF   energy in the final basis set =     -346.3508443023
 Total energy in the final basis set =     -346.3508443023
 
 Components of the MP2 correlation energy:
        aaaa  correlation energy =        -0.0353247036 au
        abab  correlation energy =        -0.2892375725 au
        bbbb  correlation energy =        -0.0353247036 au
        non-Brillouin singles    =        -0.0000000000 au

 Total  MP2   correlation energy =                    -0.35988698 au
        MP2         total energy =                  -346.71073128 au
 
 --------------------------------------------------------------
 
                    Orbital Energies (a.u.)
 --------------------------------------------------------------
 
 Alpha MOs
 -- Occupied --
-68.778 -15.538  -6.125  -4.231  -4.231  -4.231  -1.137  -0.721
 -0.657  -0.554  -0.492  -0.475  -0.404
 -- Virtual --
  0.023   0.029   0.042   0.046   0.049   0.051   0.062   0.068
  0.068   0.074   0.076   0.085   0.089   0.092   0.100   0.106
  0.114   0.129   0.144   0.147   0.152   0.159   0.161   0.171
  0.171   0.177   0.178   0.185   0.191   0.206   0.209   0.215
  0.224   0.230   0.237   0.245   0.250   0.255   0.258   0.270
  0.280   0.289   0.292   0.305   0.307   0.311   0.322   0.325
  0.330   0.334   0.335   0.348   0.353   0.361   0.368   0.375
  0.378   0.380   0.383   0.388   0.398   0.399   0.406   0.416
  0.419   0.431   0.439   0.447   0.451   0.455   0.461   0.466
  0.467   0.480   0.481   0.492   0.496   0.500   0.513   0.532
  0.537   0.548   0.558   0.583   0.597   0.607   0.608   0.616
  0.635   0.641   0.643   0.649   0.665   0.669   0.680   0.682
  0.688   0.696   0.706   0.722   0.728   0.731   0.737   0.745
  0.747   0.753   0.765   0.775   0.792   0.799   0.810   0.820
  0.828   0.837   0.848   0.856   0.875   0.882   0.915   0.921
  0.925   0.937   0.941   0.954   0.960   0.969   0.985   0.996
  1.006   1.014   1.015   1.032   1.041   1.048   1.054   1.054
  1.060   1.073   1.084   1.085   1.098   1.100   1.111   1.118
  1.127   1.135   1.146   1.155   1.160   1.162   1.173   1.180
  1.183   1.192   1.194   1.205   1.215   1.223   1.231   1.239
  1.250   1.261   1.262   1.277   1.281   1.291   1.301   1.316
  1.319   1.330   1.345   1.349   1.354   1.355   1.369   1.383
  1.392   1.400   1.408   1.415   1.429   1.436   1.445   1.453
  1.460   1.470   1.483   1.491   1.499   1.516   1.528   1.545
  1.550   1.555   1.569   1.578   1.585   1.591   1.608   1.617
  1.621   1.653   1.675   1.682   1.693   1.703   1.730   1.737
  1.753   1.771   1.784   1.801   1.815   1.817   1.846   1.859
  1.881   1.907   1.913   1.929   1.955   1.970   1.978   1.982
  1.994   2.029   2.034   2.038   2.062   2.070   2.092   2.105
  2.126   2.158   2.166   2.173   2.200   2.211   2.233   2.242
  2.263   2.273   2.296   2.326   2.336   2.351   2.363   2.383
  2.409   2.421   2.439   2.455   2.484   2.506   2.510   2.534
  2.554   2.618   2.675   2.706   2.714   2.821   2.841   2.851
  2.866   2.910   2.971   3.010   3.081   3.127   3.140   3.150
  3.205   3.261   3.434   3.546   3.606   3.707   3.714   3.749
  3.754   3.784   3.826   3.991   4.005   4.055   4.063   4.075
  4.112   4.139   4.159   4.168   4.182   4.188   4.230   4.241
  4.247   4.271   4.276   4.281   4.292   4.312   4.338   4.356
  4.378   4.387   4.400   4.410   4.421   4.438   4.460   4.470
  4.488   4.508   4.513   4.526   4.539   4.560   4.561   4.575
  4.585   4.596   4.604   4.631   4.650   4.662   4.681   4.691
  4.699   4.712   4.750   4.761   4.776   4.803   4.816   4.822
  4.843   4.849   4.938   4.949   4.969   4.986   5.017   5.031
  5.039   5.093   5.106   5.114   5.134   5.139   5.157   5.169
  5.195   5.201   5.221   5.268   5.302   5.315   5.325   5.336
  5.345   5.375   5.399   5.432   5.442   5.473   5.520   5.576
  5.582   5.755   5.763   5.908   5.963   5.975   6.034   6.049
  6.086   6.149   6.184   6.194   6.205   6.236   6.370   6.490
  6.625   6.632   6.643   6.737   6.835   7.431   7.499   7.517
  7.610   7.757   7.818   8.108   9.013   9.294   9.357  10.111
 10.958  11.979  14.981  16.313  20.352  20.462  21.049  56.882
107.007
 --------------------------------------------------------------
 
          Ground-State Mulliken Net Atomic Charges

     Atom                 Charge (a.u.)
  ----------------------------------------
      1 GH                    0.034622
      2 GH                   -0.002576
      3 GH                    0.006969
      4 GH                    0.000751
      5 GH                   -0.003931
      6 GH                   -0.000330
      7 GH                    0.000067
      8 Si                    1.097521
      9 H                    -0.308824
     10 H                    -0.259993
     11 H                    -0.229897
     12 N                    -0.581279
     13 H                     0.115843
     14 H                     0.131055
  ----------------------------------------
  Sum of atomic charges =    -0.000002

 -----------------------------------------------------------------
                    Cartesian Multipole Moments
 -----------------------------------------------------------------
    Charge (ESU x 10^10)
                -0.0000
    Dipole Moment (Debye)
         X      -1.0491      Y      -0.0346      Z      -0.6845
       Tot       1.2531
    Quadrupole Moments (Debye-Ang)
        XX     -14.4753     XY       0.4952     YY     -21.2029
        XZ       2.9437     YZ      -1.0991     ZZ     -24.2990
    Octopole Moments (Debye-Ang^2)
       XXX     127.7078    XXY       1.5999    XYY      50.5937
       YYY      17.4679    XXZ      -9.5440    XYZ       4.3486
       YYZ       1.5529    XZZ      63.6906    YZZ       6.7310
       ZZZ       7.9830
    Hexadecapole Moments (Debye-Ang^3)
      XXXX    -783.5818   XXXY     -11.0881   XXYY    -148.4010
      XYYY     -34.4632   YYYY     -64.8205   XXXZ      36.4698
      XXYZ     -18.4408   XYYZ      -0.5510   YYYZ      -3.7288
      XXZZ    -201.1789   XYZZ     -12.9311   YYZZ     -21.2868
      XZZZ      -8.1743   YZZZ      -5.7370   ZZZZ     -60.1914
 -----------------------------------------------------------------
Archival summary:
1\1\gm4.localdomain\SP\MP2\BasisUnspecified\i115h7\xuedong\WedJul320:28:242019WedJul320:28:242019\0\\#,MP2,BasisUnspecified,\\0,1\Si\H,1,1.47783\H,1,1.47919,2,110.487\H,1,1.48505,2,107.71,3,117.093,0\N,1,1.7326,2,107.661,3,-117.069,0\H,5,1.00743,1,118.409,2,-51.7377,0\H,5,1.00745,1,118.42,2,171.747,0\Gh,3,3.00353,1,88.4416,2,56.678,0\Gh,8,1.47948,3,87.2644,1,-160.671,0\Gh,9,1.47755,8,110.628,3,-57.6108,0\Gh,9,1.48525,8,107.249,3,59.7183,0\Gh,9,1.73233,8,107.552,3,-174.717,0\Gh,12,1.0073,9,118.646,8,-53.4135,0\Gh,12,1.00732,9,118.4,8,169.635,0\\HF=-346.350844\MP2=-346.710731\\@

 Total job time:  208.56s(wall), 1244.12s(cpu) 
 Wed Jul  3 20:28:24 2019

        *************************************************************
        *                                                           *
        *  Thank you very much for using Q-Chem.  Have a nice day.  *
        *                                                           *
        *************************************************************


