
Running Job 1 of 3 ../qm_inp/SiH3NH2_SiH3NH2_con2.150.qcinp
qchem ../qm_inp/SiH3NH2_SiH3NH2_con2.150.qcinp_34961.0 /scratch/xuedong/qchem34961/ 1
/home/qwang/software/qchem5.1.2/exe/qcprog.exe_s ../qm_inp/SiH3NH2_SiH3NH2_con2.150.qcinp_34961.0 /scratch/xuedong/qchem34961/
Check license passed

                  Welcome to Q-Chem
     A Quantum Leap Into The Future Of Chemistry


 Q-Chem 5.1, Q-Chem, Inc., Pleasanton, CA (2018)

 Yihan Shao,  Zhengting Gan,  E. Epifanovsky,  A. T. B. Gilbert,  M. Wormit,  
 J. Kussmann,  A. W. Lange,  A. Behn,  Jia Deng,  Xintian Feng,  D. Ghosh,  
 M. Goldey,  P. R. Horn,  L. D. Jacobson,  I. Kaliman,  T. Kus,  A. Landau,  
 Jie Liu,  E. I. Proynov,  R. M. Richard,  R. P. Steele,  E. J. Sundstrom,  
 H. L. Woodcock III,  P. M. Zimmerman,  D. Zuev,  B. Albrecht,  E. Alguire,  
 S. A. Baeppler,  D. Barton,  Z. Benda,  Y. A. Bernard,  E. J. Berquist,  
 K. B. Bravaya,  H. Burton,  D. Casanova,  Chun-Min Chang,  Yunqing Chen,  
 A. Chien,  K. D. Closser,  M. P. Coons,  S. Coriani,  S. Dasgupta,  
 A. L. Dempwolff,  M. Diedenhofen,  Hainam Do,  R. G. Edgar,  Po-Tung Fang,  
 S. Faraji,  S. Fatehi,  Qingguo Feng,  K. D. Fenk,  J. Fosso-Tande,  
 J. Gayvert,  Qinghui Ge,  A. Ghysels,  G. Gidofalvi,  J. Gomes,  
 J. Gonthier,  A. Gunina,  D. Hait,  M. W. D. Hanson-Heine,  
 P. H. P. Harbach,  A. W. Hauser,  J. E. Herr,  E. G. Hohenstein,  
 Z. C. Holden,  Kerwin Hui,  B. C. Huynh,  T.-C. Jagau,  Hyunjun Ji,  
 B. Kaduk,  K. Khistyaev,  Jaehoon Kim,  P. Klunzinger,  K. Koh,  
 D. Kosenkov,  L. Koulias,  T. Kowalczyk,  C. M. Krauter,  A. Kunitsa,  
 Ka Un Lao,  A. Laurent,  K. V. Lawler,  Joonho Lee,  D. Lefrancois,  
 S. Lehtola,  D. S. Levine,  Yi-Pei Li,  You-Sheng Lin,  Fenglai Liu,  
 E. Livshits,  A. Luenser,  P. Manohar,  E. Mansoor,  S. F. Manzer,  
 Shan-Ping Mao,  Yuezhi Mao,  N. Mardirossian,  A. V. Marenich,  
 T. Markovich,  L. A. Martinez-Martinez,  S. A. Maurer,  N. J. Mayhall,  
 S. C. McKenzie,  J.-M. Mewes,  A. F. Morrison,  J. W. Mullinax,  K. Nanda,  
 T. S. Nguyen-Beck,  R. Olivares-Amaya,  J. A. Parkhill,  T. M. Perrine,  
 F. Plasser,  P. Pokhilko,  S. Prager,  A. Prociuk,  E. Ramos,  D. R. Rehn,  
 F. Rob,  M. Schneider,  N. Sergueev,  S. M. Sharada,  S. Sharma,  
 D. W. Small,  T. Stauch,  T. Stein,  Yu-Chuan Su,  A. J. W. Thom,  
 A. Tkatchenko,  T. Tsuchimochi,  N. M. Tubman,  L. Vogt,  M. L. Vidal,  
 O. Vydrov,  M. A. Watson,  J. Wenzel,  M. de Wergifosse,  T. A. Wesolowski,  
 A. White,  J. Witte,  A. Yamada,  Jun Yang,  K. Yao,  S. Yeganeh,  
 S. R. Yost,  Zhi-Qiang You,  A. Zech,  Igor Ying Zhang,  Xing Zhang,  
 Yan Zhao,  Ying Zhu,  B. R. Brooks,  G. K. L. Chan,  C. J. Cramer,  
 M. S. Gordon,  W. J. Hehre,  A. Klamt,  M. W. Schmidt,  C. D. Sherrill,  
 D. G. Truhlar,  A. Aspuru-Guzik,  R. Baer,  A. T. Bell,  N. A. Besley,  
 Jeng-Da Chai,  A. E. DePrince, III,  R. A. DiStasio Jr.,  A. Dreuw,  
 B. D. Dunietz,  T. R. Furlani,  Chao-Ping Hsu,  Yousung Jung,  Jing Kong,  
 D. S. Lambrecht,  WanZhen Liang,  C. Ochsenfeld,  V. A. Rassolov,  
 L. V. Slipchenko,  J. E. Subotnik,  T. Van Voorhis,  J. M. Herbert,  
 A. I. Krylov,  P. M. W. Gill,  M. Head-Gordon

 Contributors to earlier versions of Q-Chem not listed above: 
 R. D. Adamson,  B. Austin,  J. Baker,  G. J. O. Beran,  K. Brandhorst,  
 S. T. Brown,  E. F. C. Byrd,  A. K. Chakraborty,  C.-L. Cheng,  
 Siu Hung Chien,  D. M. Chipman,  D. L. Crittenden,  H. Dachsel,  
 R. J. Doerksen,  A. D. Dutoi,  L. Fusti-Molnar,  W. A. Goddard III,  
 A. Golubeva-Zadorozhnaya,  S. R. Gwaltney,  G. Hawkins,  A. Heyden,  
 S. Hirata,  G. Kedziora,  F. J. Keil,  C. Kelley,  Jihan Kim,  R. A. King,  
 R. Z. Khaliullin,  P. P. Korambath,  W. Kurlancheek,  A. M. Lee,  M. S. Lee,  
 S. V. Levchenko,  Ching Yeh Lin,  D. Liotard,  R. C. Lochan,  I. Lotan,  
 P. E. Maslen,  N. Nair,  D. P. O'Neill,  D. Neuhauser,  E. Neuscamman,  
 C. M. Oana,  R. Olson,  B. Peters,  R. Peverati,  P. A. Pieniazek,  
 Y. M. Rhee,  J. Ritchie,  M. A. Rohrdanz,  E. Rosta,  N. J. Russ,  
 H. F. Schaefer III,  N. E. Schultz,  N. Shenvi,  A. C. Simmonett,  A. Sodt,  
 D. Stuck,  K. S. Thanthiriwatte,  V. Vanovschi,  Tao Wang,  A. Warshel,  
 C. F. Williams,  Q. Wu,  X. Xu,  W. Zhang

 Please cite Q-Chem as follows:
 Y. Shao et al., Mol. Phys. 113, 184-215 (2015)
 DOI: 10.1080/00268976.2014.952696

 Q-Chem 5.1.2 for Intel X86 EM64T Linux

 Parts of Q-Chem use Armadillo 8.300.2 (Tropical Shenanigans).
 http://arma.sourceforge.net/

 Q-Chem begins on Wed Jul  3 19:24:11 2019  

Host: 
0

     Scratch files written to /scratch/xuedong/qchem34961//
 Dec218 |scratch|qcdevops|jenkins|workspace|build_RNUM 6581   
Processing $rem in /home/qwang/software/qchem5.1.2/config/preferences.
 MEM_TOTAL  4000 
Core orbitals will be frozen
Input Ideriv = 1
Curr. Ideriv = -1
Max.  Ideriv = 1

Checking the input file for inconsistencies... 	...done.

--------------------------------------------------------------
User input:
--------------------------------------------------------------
$molecule
0 1
Si     2.701607000     0.125690888    -0.270400178
H     3.881940247    -0.764955877    -0.394351651
H     3.074781685     1.254572160     0.606696963
H     2.345683281     0.606987292    -1.620593772
N     1.274958878    -0.611037074     0.407064268
H     1.327705539    -0.932294968     1.362965471
H     0.821958737    -1.325136373    -0.145472211
Si    -3.817416828     0.055209942    -0.203983498
H    -3.861441408     0.753768745    -1.516272084
H    -5.207171293    -0.003465500     0.300142235
H    -3.314794686    -1.314954487    -0.460352234
N    -2.806290002     0.749189313     1.011251871
H    -3.031643989     1.664929637     1.364646916
H    -1.807198383     0.650670946     0.874611071
$end

$rem
BASIS = aug-cc-pVTZ
JOB_TYPE  =  SP
METHOD  =  MP2
SCF_MAX_CYCLES  =  200
$end

--------------------------------------------------------------
 ----------------------------------------------------------------
             Standard Nuclear Orientation (Angstroms)
    I     Atom           X                Y                Z
 ----------------------------------------------------------------
    1      Si     -3.3230132155    -0.0834376216     0.2924577036
    2      H      -4.5480201469    -0.5900914820    -0.3742221937
    3      H      -3.6110949121     1.2734834852     0.8010889184
    4      H      -2.9920650191    -0.9995501854     1.4026656684
    5      N      -1.9102126824     0.0292630862    -0.7216153875
    6      H      -1.9446978125     0.6771277242    -1.4954487940
    7      H      -1.5113388714    -0.8390208306    -1.0493747807
    8      Si      3.1835903119    -0.4208533805     0.0530593901
    9      H       3.2148534451    -1.1739999218     1.3351735823
   10      H       4.5857707666    -0.0988884761    -0.2922399117
   11      H       2.6076487857    -1.3280725476    -0.9672098146
   12      N       2.2498055011     1.0311160725     0.0283114162
   13      H       2.5307280949     1.7983461354     0.6171181290
   14      H       1.2429865895     0.9180860177     0.0383376836
 ----------------------------------------------------------------
 Molecular Point Group                 C1    NOp =  1
 Largest Abelian Subgroup              C1    NOp =  1
 Nuclear Repulsion Energy =   192.0655834800 hartrees
 There are       26 alpha and       26 beta electrons
 Requested basis set is aug-cc-pVTZ
 There are 150 shells and 422 basis functions

 Total QAlloc Memory Limit   4000 MB
 Mega-Array Size       188 MB
 MEM_STATIC part       192 MB

                       Distance Matrix (Angstroms)
             Si(  1)   H (  2)   H (  3)   H (  4)   N (  5)   H (  6)
   H (  2)  1.483847
   H (  3)  1.477475  2.394180
   H (  4)  1.476940  2.397078  2.431414
   N (  5)  1.742714  2.731723  2.599945  2.596427
   H (  6)  2.382189  3.104880  2.899415  3.508175  1.009820
   H (  7)  2.377727  3.120774  3.506546  2.868941  1.010170  1.638746
   Si(  8)  6.519743  7.745257  7.042590  6.347838  5.171997  5.468343
   H (  9)  6.709716  7.970269  7.271107  6.209736  5.651949  6.169284
   H ( 10)  7.930383  9.147357  8.382564  7.817128  6.511420  6.685576
   H ( 11)  6.189397  7.218022  6.969056  6.089420  4.723743  5.002372
   N ( 12)  5.689316  7.000056  5.916594  5.787025  4.344174  4.476719
   H ( 13)  6.157337  7.536317  6.166954  6.240717  4.964254  5.074397
   H ( 14)  4.681451  5.998380  4.926480  4.845037  3.363064  3.545687
             H (  7)   Si(  8)   H (  9)   H ( 10)   H ( 11)   N ( 12)
   Si(  8)  4.840722
   H (  9)  5.304260  1.487287
   H ( 10)  6.188360  1.479528  2.384062
   H ( 11)  4.148733  1.481791  2.386086  2.424757
   N ( 12)  4.336476  1.726494  2.738931  2.614650  2.585515
   H ( 13)  5.105997  2.381016  3.133444  2.941026  3.505782  1.007101
   H ( 14)  3.443378  2.357736  3.153865  3.509662  2.814011  1.013193
             H ( 13)
   H ( 14)  1.663768
 
 A cutoff of  1.0D-08 yielded   8846 shell pairs
 There are     66850 function pairs (     85244 Cartesian)
 
 -------------------------------------------------------
 OpenMP Integral Computing Module                       
 Release: version 1.0, May 2013, Q-Chem Inc. Pittsburgh 
 -------------------------------------------------------
 Integral Job Info:
 Integral job number is                      11
 Integral operator is                         1
 short-range coefficients                     0
 long-range coefficients              100000000
 Omega coefficients                           0
 if combine SR and LR in K                    0
 Integral screening is                        0
 Integral computing path is                   2
 max size of driver memory is            800000
 size of driver memory is                776718
 size of scratch memory is             29531563
 max col of scratch BK array              10000
 max len of scratch array in speh3          662
 max len of scratch index in speh4           32
 max int batch size is                      520
 min int batch size is                       52
 fixed nKL is                                31
 max L of basis functions is                  3
 order of int derivative is                   0
 number of shells is                        150
 number of basis is                         478
 number of cartesian basis is               478
 number of contracted shell pairs          8846
 number of primitive shell pairs          25511
 maxK2 (contraction) of shell pair          169
 max number of K2 of shell pair               1
 max number of CS2 of shell pair           1636
 max number of PS2 of shell pair           2379
 mem total for path MDJ                  716892
 -------------------------------------------------------
 Smallest overlap matrix eigenvalue = 1.89E-05

 Q-Chem warning in module stvman/mkSTV.C, line 306:

 Overlap eigenvalue is smaller than square root of threshold
 Use THRESH >= 12 to get rid of this warning


 Scale SEOQF with 1.000000e-01/1.000000e-01/1.000000e-01

 Standard Electronic Orientation quadrupole field applied
 Nucleus-field energy     =     0.0000000162 hartrees
 Guess from superposition of atomic densities
 Warning:  Energy on first SCF cycle will be non-variational
 SAD guess density has 52.000000 electrons

 -----------------------------------------------------------------------
  General SCF calculation program by
  Eric Jon Sundstrom, Paul Horn, Yuezhi Mao, Dmitri Zuev, Alec White,
  David Stuck, Shaama M.S., Shane Yost, Joonho Lee, David Small,
  Daniel Levine, Susi Lehtola, Hugh Burton, Evgeny Epifanovsky
 -----------------------------------------------------------------------
 Hartree-Fock
 using 6 threads for integral computing
 -------------------------------------------------------
 OpenMP Integral computing Module                
 Release: version 1.0, May 2013, Q-Chem Inc. Pittsburgh 
 -------------------------------------------------------
 A restricted SCF calculation will be
 performed using DIIS
 SCF converges when DIIS error is below 1.0e-05
 ---------------------------------------
  Cycle       Energy         DIIS error
 ---------------------------------------
    1    -692.8787545803      1.68e-02  
    2    -692.6289412428      1.65e-03  
    3    -692.6896132077      7.66e-04  
    4    -692.7012793040      1.94e-04  
    5    -692.7025022450      2.54e-05  
    6    -692.7025368488      6.22e-06  Convergence criterion met
 ---------------------------------------
 SCF time:   CPU 327.90s  wall 54.00s 
 SCF   energy in the final basis set =     -692.7025368488
 Total energy in the final basis set =     -692.7025368488
 
 Components of the MP2 correlation energy:
        aaaa  correlation energy =        -0.0708722950 au
        abab  correlation energy =        -0.5788745019 au
        bbbb  correlation energy =        -0.0708722950 au
        non-Brillouin singles    =        -0.0000000000 au

 Total  MP2   correlation energy =                    -0.72061909 au
        MP2         total energy =                  -693.42315594 au
 
 --------------------------------------------------------------
 
                    Orbital Energies (a.u.)
 --------------------------------------------------------------
 
 Alpha MOs
 -- Occupied --
-68.784 -68.775 -15.544 -15.535  -6.130  -6.121  -4.236  -4.236
 -4.236  -4.228  -4.228  -4.228  -1.141  -1.133  -0.725  -0.717
 -0.658  -0.654  -0.557  -0.549  -0.497  -0.488  -0.481  -0.472
 -0.411  -0.400
 -- Virtual --
  0.026   0.037   0.040   0.041   0.051   0.056   0.059   0.063
  0.068   0.071   0.076   0.078   0.082   0.090   0.098   0.103
  0.132   0.138   0.144   0.145   0.148   0.156   0.159   0.162
  0.166   0.173   0.178   0.184   0.188   0.195   0.200   0.202
  0.207   0.212   0.221   0.226   0.244   0.245   0.251   0.259
  0.262   0.267   0.274   0.287   0.289   0.295   0.304   0.307
  0.312   0.326   0.331   0.333   0.341   0.343   0.349   0.359
  0.365   0.371   0.376   0.378   0.382   0.392   0.392   0.397
  0.405   0.409   0.414   0.418   0.438   0.439   0.449   0.461
  0.466   0.472   0.477   0.484   0.490   0.493   0.506   0.515
  0.524   0.530   0.544   0.555   0.565   0.572   0.575   0.587
  0.597   0.600   0.617   0.626   0.633   0.637   0.640   0.644
  0.649   0.655   0.665   0.670   0.672   0.677   0.678   0.683
  0.699   0.701   0.714   0.716   0.729   0.740   0.758   0.765
  0.779   0.807   0.817   0.836   0.844   0.855   0.890   0.908
  0.913   0.915   0.929   0.937   0.938   0.948   0.960   0.962
  0.966   0.970   0.977   0.983   0.987   0.996   1.004   1.012
  1.015   1.030   1.032   1.046   1.051   1.062   1.068   1.080
  1.091   1.102   1.114   1.119   1.123   1.130   1.136   1.141
  1.151   1.154   1.163   1.169   1.173   1.177   1.187   1.200
  1.201   1.203   1.213   1.217   1.236   1.240   1.246   1.258
  1.265   1.273   1.291   1.299   1.302   1.311   1.321   1.331
  1.341   1.344   1.349   1.357   1.364   1.371   1.375   1.383
  1.388   1.391   1.404   1.408   1.421   1.430   1.435   1.446
  1.457   1.463   1.468   1.481   1.489   1.494   1.505   1.511
  1.536   1.540   1.546   1.556   1.566   1.570   1.594   1.614
  1.624   1.685   1.690   1.709   1.743   1.760   1.781   1.793
  1.804   1.820   1.831   1.841   1.872   1.885   1.922   1.935
  1.941   1.965   1.971   1.987   2.014   2.020   2.032   2.043
  2.088   2.105   2.107   2.121   2.135   2.144   2.181   2.188
  2.203   2.217   2.220   2.236   2.240   2.243   2.249   2.253
  2.296   2.312   2.327   2.340   2.389   2.410   2.431   2.446
  2.459   2.487   2.493   2.500   2.533   2.601   2.684   2.722
  2.901   2.948   3.121   3.131   3.158   3.175   3.343   3.364
  3.552   3.587   3.667   3.679   3.689   3.691   3.735   3.748
  3.770   3.787   3.959   3.980   3.983   3.990   3.993   4.010
  4.013   4.028   4.083   4.092   4.097   4.112   4.119   4.121
  4.128   4.134   4.151   4.161   4.175   4.179   4.185   4.194
  4.236   4.238   4.247   4.259   4.265   4.278   4.296   4.297
  4.310   4.316   4.352   4.355   4.379   4.396   4.467   4.474
  4.476   4.488   4.499   4.503   4.525   4.540   4.547   4.553
  4.560   4.570   4.584   4.603   4.628   4.643   4.665   4.689
  4.725   4.744   4.754   4.763   4.778   4.791   4.800   4.805
  4.817   4.827   4.832   4.847   4.866   4.889   4.954   4.959
  5.000   5.010   5.070   5.081   5.106   5.123   5.131   5.148
  5.157   5.176   5.224   5.232   5.305   5.309   5.328   5.341
  5.410   5.418   5.531   5.548   5.568   5.574   5.863   5.913
  5.959   5.975   6.047   6.053   6.153   6.185   6.191   6.215
  6.489   6.502   6.620   6.623   6.721   6.800   7.752   7.762
  8.735   8.776  16.277  16.643
 --------------------------------------------------------------
 
          Ground-State Mulliken Net Atomic Charges

     Atom                 Charge (a.u.)
  ----------------------------------------
      1 Si                    1.030849
      2 H                    -0.331642
      3 H                    -0.281787
      4 H                    -0.267023
      5 N                    -0.396280
      6 H                     0.121222
      7 H                     0.129717
      8 Si                    1.113292
      9 H                    -0.350983
     10 H                    -0.308040
     11 H                    -0.299550
     12 N                    -0.483081
     13 H                     0.105724
     14 H                     0.217583
  ----------------------------------------
  Sum of atomic charges =    -0.000002

 -----------------------------------------------------------------
                    Cartesian Multipole Moments
 -----------------------------------------------------------------
    Charge (ESU x 10^10)
                -0.0000
    Dipole Moment (Debye)
         X      -0.9422      Y       0.2467      Z      -0.2851
       Tot       1.0149
    Quadrupole Moments (Debye-Ang)
        XX     -48.7024     XY       1.1067     YY     -43.0995
        XZ       4.1207     YZ       1.9975     ZZ     -43.8194
    Octopole Moments (Debye-Ang^2)
       XXX       0.2466    XXY       9.0005    XYY       1.8265
       YYY       7.5335    XXZ       4.7183    XYZ       8.8664
       YYZ      -0.5164    XZZ      -5.5581    YZZ       5.2309
       ZZZ      -8.0403
    Hexadecapole Moments (Debye-Ang^3)
      XXXX   -2605.4004   XXXY       9.5614   XXYY    -434.8618
      XYYY      23.8614   YYYY    -159.4082   XXXZ      14.1229
      XXYZ      11.5586   XYYZ      19.9048   YYYZ       9.6221
      XXZZ    -435.2504   XYZZ       4.4230   YYZZ     -50.0522
      XZZZ      13.9068   YZZZ       1.4492   ZZZZ    -130.7057
 -----------------------------------------------------------------
Archival summary:
1\1\mm2.localdomain\SP\MP2\BasisUnspecified\i2210\xuedong\WedJul319:29:502019WedJul319:29:502019\0\\#,MP2,BasisUnspecified,\\0,1\Si\H,1,1.47953\H,1,1.48179,2,109.932\H,1,1.48729,2,106.946,3,115.775,0\N,1,1.72649,2,109.04,3,-117.186,0\H,5,1.0071,1,118.779,2,-57.0413,0\H,5,1.01319,1,116.327,2,166.451,0\N,7,3.36306,5,163.525,1,-57.3293,0\H,8,1.00982,7,92.0415,5,-73.7343,0\H,8,1.01017,7,86.0014,5,34.6133,0\Si,8,1.74271,7,130.218,5,157.026,0\H,11,1.47694,8,107.209,7,-56.0774,0\H,11,1.47747,8,107.397,7,63.0034,0\H,11,1.48385,8,115.462,7,-176.608,0\\HF=-692.702537\MP2=-693.423156\\@

 Total job time:  339.23s(wall), 2008.16s(cpu) 
 Wed Jul  3 19:29:50 2019

        *************************************************************
        *                                                           *
        *  Thank you very much for using Q-Chem.  Have a nice day.  *
        *                                                           *
        *************************************************************



Running Job 2 of 3 ../qm_inp/SiH3NH2_SiH3NH2_con2.150.qcinp
qchem ../qm_inp/SiH3NH2_SiH3NH2_con2.150.qcinp_34961.1 /scratch/xuedong/qchem34961/ 1
/home/qwang/software/qchem5.1.2/exe/qcprog.exe_s ../qm_inp/SiH3NH2_SiH3NH2_con2.150.qcinp_34961.1 /scratch/xuedong/qchem34961/
Check license passed

                  Welcome to Q-Chem
     A Quantum Leap Into The Future Of Chemistry


 Q-Chem 5.1, Q-Chem, Inc., Pleasanton, CA (2018)

 Yihan Shao,  Zhengting Gan,  E. Epifanovsky,  A. T. B. Gilbert,  M. Wormit,  
 J. Kussmann,  A. W. Lange,  A. Behn,  Jia Deng,  Xintian Feng,  D. Ghosh,  
 M. Goldey,  P. R. Horn,  L. D. Jacobson,  I. Kaliman,  T. Kus,  A. Landau,  
 Jie Liu,  E. I. Proynov,  R. M. Richard,  R. P. Steele,  E. J. Sundstrom,  
 H. L. Woodcock III,  P. M. Zimmerman,  D. Zuev,  B. Albrecht,  E. Alguire,  
 S. A. Baeppler,  D. Barton,  Z. Benda,  Y. A. Bernard,  E. J. Berquist,  
 K. B. Bravaya,  H. Burton,  D. Casanova,  Chun-Min Chang,  Yunqing Chen,  
 A. Chien,  K. D. Closser,  M. P. Coons,  S. Coriani,  S. Dasgupta,  
 A. L. Dempwolff,  M. Diedenhofen,  Hainam Do,  R. G. Edgar,  Po-Tung Fang,  
 S. Faraji,  S. Fatehi,  Qingguo Feng,  K. D. Fenk,  J. Fosso-Tande,  
 J. Gayvert,  Qinghui Ge,  A. Ghysels,  G. Gidofalvi,  J. Gomes,  
 J. Gonthier,  A. Gunina,  D. Hait,  M. W. D. Hanson-Heine,  
 P. H. P. Harbach,  A. W. Hauser,  J. E. Herr,  E. G. Hohenstein,  
 Z. C. Holden,  Kerwin Hui,  B. C. Huynh,  T.-C. Jagau,  Hyunjun Ji,  
 B. Kaduk,  K. Khistyaev,  Jaehoon Kim,  P. Klunzinger,  K. Koh,  
 D. Kosenkov,  L. Koulias,  T. Kowalczyk,  C. M. Krauter,  A. Kunitsa,  
 Ka Un Lao,  A. Laurent,  K. V. Lawler,  Joonho Lee,  D. Lefrancois,  
 S. Lehtola,  D. S. Levine,  Yi-Pei Li,  You-Sheng Lin,  Fenglai Liu,  
 E. Livshits,  A. Luenser,  P. Manohar,  E. Mansoor,  S. F. Manzer,  
 Shan-Ping Mao,  Yuezhi Mao,  N. Mardirossian,  A. V. Marenich,  
 T. Markovich,  L. A. Martinez-Martinez,  S. A. Maurer,  N. J. Mayhall,  
 S. C. McKenzie,  J.-M. Mewes,  A. F. Morrison,  J. W. Mullinax,  K. Nanda,  
 T. S. Nguyen-Beck,  R. Olivares-Amaya,  J. A. Parkhill,  T. M. Perrine,  
 F. Plasser,  P. Pokhilko,  S. Prager,  A. Prociuk,  E. Ramos,  D. R. Rehn,  
 F. Rob,  M. Schneider,  N. Sergueev,  S. M. Sharada,  S. Sharma,  
 D. W. Small,  T. Stauch,  T. Stein,  Yu-Chuan Su,  A. J. W. Thom,  
 A. Tkatchenko,  T. Tsuchimochi,  N. M. Tubman,  L. Vogt,  M. L. Vidal,  
 O. Vydrov,  M. A. Watson,  J. Wenzel,  M. de Wergifosse,  T. A. Wesolowski,  
 A. White,  J. Witte,  A. Yamada,  Jun Yang,  K. Yao,  S. Yeganeh,  
 S. R. Yost,  Zhi-Qiang You,  A. Zech,  Igor Ying Zhang,  Xing Zhang,  
 Yan Zhao,  Ying Zhu,  B. R. Brooks,  G. K. L. Chan,  C. J. Cramer,  
 M. S. Gordon,  W. J. Hehre,  A. Klamt,  M. W. Schmidt,  C. D. Sherrill,  
 D. G. Truhlar,  A. Aspuru-Guzik,  R. Baer,  A. T. Bell,  N. A. Besley,  
 Jeng-Da Chai,  A. E. DePrince, III,  R. A. DiStasio Jr.,  A. Dreuw,  
 B. D. Dunietz,  T. R. Furlani,  Chao-Ping Hsu,  Yousung Jung,  Jing Kong,  
 D. S. Lambrecht,  WanZhen Liang,  C. Ochsenfeld,  V. A. Rassolov,  
 L. V. Slipchenko,  J. E. Subotnik,  T. Van Voorhis,  J. M. Herbert,  
 A. I. Krylov,  P. M. W. Gill,  M. Head-Gordon

 Contributors to earlier versions of Q-Chem not listed above: 
 R. D. Adamson,  B. Austin,  J. Baker,  G. J. O. Beran,  K. Brandhorst,  
 S. T. Brown,  E. F. C. Byrd,  A. K. Chakraborty,  C.-L. Cheng,  
 Siu Hung Chien,  D. M. Chipman,  D. L. Crittenden,  H. Dachsel,  
 R. J. Doerksen,  A. D. Dutoi,  L. Fusti-Molnar,  W. A. Goddard III,  
 A. Golubeva-Zadorozhnaya,  S. R. Gwaltney,  G. Hawkins,  A. Heyden,  
 S. Hirata,  G. Kedziora,  F. J. Keil,  C. Kelley,  Jihan Kim,  R. A. King,  
 R. Z. Khaliullin,  P. P. Korambath,  W. Kurlancheek,  A. M. Lee,  M. S. Lee,  
 S. V. Levchenko,  Ching Yeh Lin,  D. Liotard,  R. C. Lochan,  I. Lotan,  
 P. E. Maslen,  N. Nair,  D. P. O'Neill,  D. Neuhauser,  E. Neuscamman,  
 C. M. Oana,  R. Olson,  B. Peters,  R. Peverati,  P. A. Pieniazek,  
 Y. M. Rhee,  J. Ritchie,  M. A. Rohrdanz,  E. Rosta,  N. J. Russ,  
 H. F. Schaefer III,  N. E. Schultz,  N. Shenvi,  A. C. Simmonett,  A. Sodt,  
 D. Stuck,  K. S. Thanthiriwatte,  V. Vanovschi,  Tao Wang,  A. Warshel,  
 C. F. Williams,  Q. Wu,  X. Xu,  W. Zhang

 Please cite Q-Chem as follows:
 Y. Shao et al., Mol. Phys. 113, 184-215 (2015)
 DOI: 10.1080/00268976.2014.952696

 Q-Chem 5.1.2 for Intel X86 EM64T Linux

 Parts of Q-Chem use Armadillo 8.300.2 (Tropical Shenanigans).
 http://arma.sourceforge.net/

 Q-Chem begins on Wed Jul  3 19:29:50 2019  

Host: 
0

     Scratch files written to /scratch/xuedong/qchem34961//
 Dec218 |scratch|qcdevops|jenkins|workspace|build_RNUM 6581   
Processing $rem in /home/qwang/software/qchem5.1.2/config/preferences.
 MEM_TOTAL  4000 
Core orbitals will be frozen
Input Ideriv = 1
Curr. Ideriv = -1
Max.  Ideriv = 1

Checking the input file for inconsistencies... 	...done.

--------------------------------------------------------------
User input:
--------------------------------------------------------------

$molecule
0 1
Si     2.701607000     0.125690888    -0.270400178
H     3.881940247    -0.764955877    -0.394351651
H     3.074781685     1.254572160     0.606696963
H     2.345683281     0.606987292    -1.620593772
N     1.274958878    -0.611037074     0.407064268
H     1.327705539    -0.932294968     1.362965471
H     0.821958737    -1.325136373    -0.145472211
@Si   -3.817416828     0.055209942    -0.203983498
@H    -3.861441408     0.753768745    -1.516272084
@H    -5.207171293    -0.003465500     0.300142235
@H    -3.314794686    -1.314954487    -0.460352234
@N    -2.806290002     0.749189313     1.011251871
@H    -3.031643989     1.664929637     1.364646916
@H    -1.807198383     0.650670946     0.874611071
$end

$rem
BASIS = aug-cc-pVTZ
JOB_TYPE  =  SP
METHOD  =  MP2
SCF_MAX_CYCLES  =  200
$end

--------------------------------------------------------------
 ----------------------------------------------------------------
             Standard Nuclear Orientation (Angstroms)
    I     Atom           X                Y                Z
 ----------------------------------------------------------------
    1      Si      2.7016070000     0.1256908880    -0.2704001780
    2      H       3.8819402470    -0.7649558770    -0.3943516510
    3      H       3.0747816850     1.2545721600     0.6066969630
    4      H       2.3456832810     0.6069872920    -1.6205937720
    5      N       1.2749588780    -0.6110370740     0.4070642680
    6      H       1.3277055390    -0.9322949680     1.3629654710
    7      H       0.8219587370    -1.3251363730    -0.1454722110
    8      GH     -3.8174168280     0.0552099420    -0.2039834980
    9      GH     -3.8614414080     0.7537687450    -1.5162720840
   10      GH     -5.2071712930    -0.0034655000     0.3001422350
   11      GH     -3.3147946860    -1.3149544870    -0.4603522340
   12      GH     -2.8062900020     0.7491893130     1.0112518710
   13      GH     -3.0316439890     1.6649296370     1.3646469160
   14      GH     -1.8071983830     0.6506709460     0.8746110710
 ----------------------------------------------------------------
 Nuclear Repulsion Energy =    64.5403355067 hartrees
 There are       13 alpha and       13 beta electrons
 Requested basis set is aug-cc-pVTZ
 There are 150 shells and 422 basis functions

 Total QAlloc Memory Limit   4000 MB
 Mega-Array Size       188 MB
 MEM_STATIC part       192 MB

                       Distance Matrix (Angstroms)
             Si(  1)   H (  2)   H (  3)   H (  4)   N (  5)   H (  6)
   H (  2)  1.483847
   H (  3)  1.477475  2.394180
   H (  4)  1.476940  2.397078  2.431414
   N (  5)  1.742714  2.731723  2.599945  2.596427
   H (  6)  2.382189  3.104880  2.899415  3.508175  1.009820
   H (  7)  2.377727  3.120774  3.506546  2.868941  1.010170  1.638746
   GH(  8)  6.519743  7.745257  7.042590  6.347838  5.171997  5.468343
   GH(  9)  6.709716  7.970269  7.271107  6.209736  5.651949  6.169284
   GH( 10)  7.930383  9.147357  8.382564  7.817128  6.511420  6.685576
   GH( 11)  6.189397  7.218022  6.969056  6.089420  4.723743  5.002372
   GH( 12)  5.689316  7.000056  5.916594  5.787025  4.344174  4.476719
   GH( 13)  6.157337  7.536317  6.166954  6.240717  4.964254  5.074397
   GH( 14)  4.681451  5.998380  4.926480  4.845037  3.363064  3.545687
             H (  7)   GH(  8)   GH(  9)   GH( 10)   GH( 11)   GH( 12)
   GH(  8)  4.840722
   GH(  9)  5.304260  1.487287
   GH( 10)  6.188360  1.479528  2.384062
   GH( 11)  4.148733  1.481791  2.386086  2.424757
   GH( 12)  4.336476  1.726494  2.738931  2.614650  2.585515
   GH( 13)  5.105997  2.381016  3.133444  2.941026  3.505782  1.007101
   GH( 14)  3.443378  2.357736  3.153865  3.509662  2.814011  1.013193
             GH( 13)
   GH( 14)  1.663768
 
 A cutoff of  1.0D-08 yielded   8846 shell pairs
 There are     66850 function pairs (     85244 Cartesian)
 
 -------------------------------------------------------
 OpenMP Integral Computing Module                       
 Release: version 1.0, May 2013, Q-Chem Inc. Pittsburgh 
 -------------------------------------------------------
 Integral Job Info:
 Integral job number is                      11
 Integral operator is                         1
 short-range coefficients                     0
 long-range coefficients              100000000
 Omega coefficients                           0
 if combine SR and LR in K                    0
 Integral screening is                        0
 Integral computing path is                   2
 max size of driver memory is            800000
 size of driver memory is                776718
 size of scratch memory is             29531563
 max col of scratch BK array              10000
 max len of scratch array in speh3          662
 max len of scratch index in speh4           32
 max int batch size is                      520
 min int batch size is                       52
 fixed nKL is                                31
 max L of basis functions is                  3
 order of int derivative is                   0
 number of shells is                        150
 number of basis is                         478
 number of cartesian basis is               478
 number of contracted shell pairs          8846
 number of primitive shell pairs          25511
 maxK2 (contraction) of shell pair          169
 max number of K2 of shell pair               1
 max number of CS2 of shell pair           1636
 max number of PS2 of shell pair           2379
 mem total for path MDJ                  716892
 -------------------------------------------------------
 Smallest overlap matrix eigenvalue = 1.89E-05

 Q-Chem warning in module stvman/mkSTV.C, line 306:

 Overlap eigenvalue is smaller than square root of threshold
 Use THRESH >= 12 to get rid of this warning


 Scale SEOQF with 1.000000e-02/1.000000e-01/1.000000e-01

 Standard Electronic Orientation quadrupole field applied
 Nucleus-field energy     =     0.0000000003 hartrees
 Guess from superposition of atomic densities
 Warning:  Energy on first SCF cycle will be non-variational
 SAD guess density has 26.000000 electrons

 -----------------------------------------------------------------------
  General SCF calculation program by
  Eric Jon Sundstrom, Paul Horn, Yuezhi Mao, Dmitri Zuev, Alec White,
  David Stuck, Shaama M.S., Shane Yost, Joonho Lee, David Small,
  Daniel Levine, Susi Lehtola, Hugh Burton, Evgeny Epifanovsky
 -----------------------------------------------------------------------
 Hartree-Fock
 using 6 threads for integral computing
 -------------------------------------------------------
 OpenMP Integral computing Module                
 Release: version 1.0, May 2013, Q-Chem Inc. Pittsburgh 
 -------------------------------------------------------
 A restricted SCF calculation will be
 performed using DIIS
 SCF converges when DIIS error is below 1.0e-05
 ---------------------------------------
  Cycle       Energy         DIIS error
 ---------------------------------------
    1    -346.4319605996      1.19e-02  
    2    -346.3128056939      1.18e-03  
    3    -346.3436471905      5.55e-04  
    4    -346.3497458679      1.37e-04  
    5    -346.3503609709      1.85e-05  
    6    -346.3503791132      4.48e-06  Convergence criterion met
 ---------------------------------------
 SCF time:   CPU 291.56s  wall 48.00s 
 SCF   energy in the final basis set =     -346.3503791132
 Total energy in the final basis set =     -346.3503791132
 
 Components of the MP2 correlation energy:
        aaaa  correlation energy =        -0.0353546378 au
        abab  correlation energy =        -0.2894049756 au
        bbbb  correlation energy =        -0.0353546378 au
        non-Brillouin singles    =        -0.0000000000 au

 Total  MP2   correlation energy =                    -0.36011425 au
        MP2         total energy =                  -346.71049336 au
 
 --------------------------------------------------------------
 
                    Orbital Energies (a.u.)
 --------------------------------------------------------------
 
 Alpha MOs
 -- Occupied --
-68.779 -15.538  -6.126  -4.232  -4.232  -4.232  -1.135  -0.720
 -0.652  -0.552  -0.492  -0.477  -0.405
 -- Virtual --
  0.020   0.034   0.040   0.041   0.049   0.054   0.056   0.063
  0.068   0.073   0.074   0.078   0.082   0.086   0.091   0.101
  0.111   0.134   0.140   0.142   0.147   0.154   0.159   0.168
  0.170   0.173   0.179   0.187   0.192   0.194   0.200   0.202
  0.207   0.214   0.218   0.233   0.233   0.241   0.244   0.255
  0.260   0.267   0.280   0.288   0.297   0.309   0.317   0.321
  0.327   0.331   0.335   0.344   0.348   0.352   0.361   0.368
  0.369   0.377   0.383   0.387   0.393   0.396   0.403   0.408
  0.416   0.416   0.420   0.426   0.434   0.442   0.450   0.458
  0.462   0.465   0.478   0.482   0.487   0.502   0.507   0.518
  0.522   0.534   0.539   0.562   0.579   0.585   0.596   0.604
  0.618   0.628   0.637   0.640   0.646   0.651   0.656   0.666
  0.671   0.678   0.683   0.688   0.700   0.710   0.716   0.726
  0.727   0.744   0.752   0.766   0.774   0.789   0.803   0.813
  0.814   0.818   0.826   0.839   0.847   0.858   0.880   0.905
  0.918   0.926   0.926   0.938   0.940   0.957   0.963   0.972
  0.977   0.982   0.994   0.997   1.014   1.022   1.029   1.033
  1.039   1.052   1.062   1.064   1.073   1.085   1.093   1.094
  1.110   1.117   1.128   1.134   1.140   1.145   1.151   1.157
  1.165   1.170   1.176   1.190   1.198   1.200   1.207   1.220
  1.220   1.227   1.234   1.247   1.248   1.254   1.276   1.286
  1.294   1.303   1.307   1.313   1.325   1.340   1.345   1.346
  1.355   1.369   1.378   1.382   1.387   1.395   1.405   1.419
  1.427   1.436   1.450   1.461   1.477   1.484   1.492   1.502
  1.515   1.530   1.543   1.549   1.564   1.571   1.575   1.579
  1.595   1.621   1.632   1.667   1.682   1.698   1.710   1.739
  1.749   1.758   1.764   1.769   1.791   1.803   1.813   1.828
  1.835   1.878   1.883   1.889   1.928   1.937   1.947   1.981
  1.996   2.006   2.016   2.026   2.044   2.057   2.067   2.095
  2.110   2.118   2.145   2.148   2.169   2.196   2.209   2.236
  2.239   2.248   2.268   2.297   2.299   2.327   2.336   2.364
  2.396   2.400   2.428   2.453   2.462   2.491   2.498   2.520
  2.540   2.584   2.641   2.692   2.715   2.826   2.834   2.853
  2.866   2.940   2.996   3.010   3.074   3.118   3.130   3.144
  3.168   3.341   3.355   3.544   3.562   3.672   3.696   3.750
  3.751   3.786   3.796   3.981   3.985   3.997   4.031   4.054
  4.087   4.101   4.123   4.128   4.157   4.179   4.183   4.223
  4.239   4.242   4.256   4.263   4.271   4.289   4.299   4.314
  4.354   4.356   4.366   4.382   4.394   4.409   4.458   4.464
  4.472   4.483   4.487   4.503   4.513   4.546   4.551   4.554
  4.569   4.589   4.601   4.613   4.621   4.635   4.637   4.661
  4.666   4.673   4.713   4.739   4.760   4.794   4.809   4.814
  4.832   4.836   4.869   4.952   4.954   4.965   5.009   5.035
  5.044   5.079   5.096   5.110   5.115   5.143   5.150   5.167
  5.175   5.202   5.213   5.235   5.276   5.293   5.314   5.323
  5.334   5.358   5.396   5.418   5.431   5.462   5.542   5.546
  5.578   5.737   5.760   5.870   5.974   5.980   6.016   6.047
  6.056   6.106   6.159   6.188   6.195   6.200   6.345   6.503
  6.628   6.641   6.652   6.734   6.860   7.445   7.502   7.543
  7.613   7.766   7.857   8.141   8.741   9.264   9.342  10.093
 11.022  12.038  14.674  16.349  20.329  20.434  20.935  57.491
106.969
 --------------------------------------------------------------
 
          Ground-State Mulliken Net Atomic Charges

     Atom                 Charge (a.u.)
  ----------------------------------------
      1 Si                    1.034830
      2 H                    -0.334654
      3 H                    -0.282726
      4 H                    -0.268562
      5 N                    -0.395607
      6 H                     0.119864
      7 H                     0.127870
      8 GH                   -0.000367
      9 GH                   -0.000435
     10 GH                   -0.000124
     11 GH                    0.000286
     12 GH                   -0.000743
     13 GH                   -0.000893
     14 GH                    0.001260
  ----------------------------------------
  Sum of atomic charges =    -0.000001

 -----------------------------------------------------------------
                    Cartesian Multipole Moments
 -----------------------------------------------------------------
    Charge (ESU x 10^10)
                -0.0000
    Dipole Moment (Debye)
         X      -0.0531      Y      -1.1946      Z       0.3280
       Tot       1.2400
    Quadrupole Moments (Debye-Ang)
        XX     -23.9457     XY      -0.3719     YY     -21.0353
        XZ       1.0859     YZ      -0.6415     ZZ     -20.8039
    Octopole Moments (Debye-Ang^2)
       XXX    -163.8795    XXY       4.8226    XYY     -52.3951
       YYY       4.0553    XXZ       3.5193    XYZ      -2.0151
       YYZ       1.4036    XZZ     -49.3854    YZZ      -0.9453
       ZZZ      10.0169
    Hexadecapole Moments (Debye-Ang^3)
      XXXX    -867.2973   XXXY      15.1007   XXYY    -155.1392
      XYYY      -3.1023   YYYY     -67.5077   XXXZ      27.8987
      XXYZ      -4.6198   XYYZ       7.6244   YYYZ       7.1648
      XXZZ    -145.3313   XYZZ      -5.3835   YYZZ     -20.7836
      XZZZ      34.5192   YZZZ       4.6600   ZZZZ     -63.4343
 -----------------------------------------------------------------
Archival summary:
1\1\mm2.localdomain\SP\MP2\BasisUnspecified\i115h7\xuedong\WedJul319:33:002019WedJul319:33:002019\0\\#,MP2,BasisUnspecified,\\0,1\Si\H,1,1.47694\H,1,1.47747,2,110.768\H,1,1.48385,2,108.115,3,-118.024,0\N,1,1.74271,2,107.209,3,116.886,0\H,5,1.00982,1,117.369,2,-175.436,0\H,5,1.01017,1,116.957,2,53.0464,0\Gh,5,3.36306,1,130.218,2,-56.0774,0\Gh,8,1.01319,5,163.525,1,157.026,0\Gh,9,1.0071,8,110.879,5,162.885,0\Gh,9,1.72649,8,116.327,5,-57.3293,0\Gh,11,1.47953,9,109.04,8,166.451,0\Gh,11,1.48179,9,107.146,8,47.5128,0\Gh,11,1.48729,9,116.718,8,-72.2908,0\\HF=-346.350379\MP2=-346.710493\\@

 Total job time:  189.32s(wall), 1128.21s(cpu) 
 Wed Jul  3 19:33:00 2019

        *************************************************************
        *                                                           *
        *  Thank you very much for using Q-Chem.  Have a nice day.  *
        *                                                           *
        *************************************************************



Running Job 3 of 3 ../qm_inp/SiH3NH2_SiH3NH2_con2.150.qcinp
qchem ../qm_inp/SiH3NH2_SiH3NH2_con2.150.qcinp_34961.2 /scratch/xuedong/qchem34961/ 1
/home/qwang/software/qchem5.1.2/exe/qcprog.exe_s ../qm_inp/SiH3NH2_SiH3NH2_con2.150.qcinp_34961.2 /scratch/xuedong/qchem34961/
Check license passed

                  Welcome to Q-Chem
     A Quantum Leap Into The Future Of Chemistry


 Q-Chem 5.1, Q-Chem, Inc., Pleasanton, CA (2018)

 Yihan Shao,  Zhengting Gan,  E. Epifanovsky,  A. T. B. Gilbert,  M. Wormit,  
 J. Kussmann,  A. W. Lange,  A. Behn,  Jia Deng,  Xintian Feng,  D. Ghosh,  
 M. Goldey,  P. R. Horn,  L. D. Jacobson,  I. Kaliman,  T. Kus,  A. Landau,  
 Jie Liu,  E. I. Proynov,  R. M. Richard,  R. P. Steele,  E. J. Sundstrom,  
 H. L. Woodcock III,  P. M. Zimmerman,  D. Zuev,  B. Albrecht,  E. Alguire,  
 S. A. Baeppler,  D. Barton,  Z. Benda,  Y. A. Bernard,  E. J. Berquist,  
 K. B. Bravaya,  H. Burton,  D. Casanova,  Chun-Min Chang,  Yunqing Chen,  
 A. Chien,  K. D. Closser,  M. P. Coons,  S. Coriani,  S. Dasgupta,  
 A. L. Dempwolff,  M. Diedenhofen,  Hainam Do,  R. G. Edgar,  Po-Tung Fang,  
 S. Faraji,  S. Fatehi,  Qingguo Feng,  K. D. Fenk,  J. Fosso-Tande,  
 J. Gayvert,  Qinghui Ge,  A. Ghysels,  G. Gidofalvi,  J. Gomes,  
 J. Gonthier,  A. Gunina,  D. Hait,  M. W. D. Hanson-Heine,  
 P. H. P. Harbach,  A. W. Hauser,  J. E. Herr,  E. G. Hohenstein,  
 Z. C. Holden,  Kerwin Hui,  B. C. Huynh,  T.-C. Jagau,  Hyunjun Ji,  
 B. Kaduk,  K. Khistyaev,  Jaehoon Kim,  P. Klunzinger,  K. Koh,  
 D. Kosenkov,  L. Koulias,  T. Kowalczyk,  C. M. Krauter,  A. Kunitsa,  
 Ka Un Lao,  A. Laurent,  K. V. Lawler,  Joonho Lee,  D. Lefrancois,  
 S. Lehtola,  D. S. Levine,  Yi-Pei Li,  You-Sheng Lin,  Fenglai Liu,  
 E. Livshits,  A. Luenser,  P. Manohar,  E. Mansoor,  S. F. Manzer,  
 Shan-Ping Mao,  Yuezhi Mao,  N. Mardirossian,  A. V. Marenich,  
 T. Markovich,  L. A. Martinez-Martinez,  S. A. Maurer,  N. J. Mayhall,  
 S. C. McKenzie,  J.-M. Mewes,  A. F. Morrison,  J. W. Mullinax,  K. Nanda,  
 T. S. Nguyen-Beck,  R. Olivares-Amaya,  J. A. Parkhill,  T. M. Perrine,  
 F. Plasser,  P. Pokhilko,  S. Prager,  A. Prociuk,  E. Ramos,  D. R. Rehn,  
 F. Rob,  M. Schneider,  N. Sergueev,  S. M. Sharada,  S. Sharma,  
 D. W. Small,  T. Stauch,  T. Stein,  Yu-Chuan Su,  A. J. W. Thom,  
 A. Tkatchenko,  T. Tsuchimochi,  N. M. Tubman,  L. Vogt,  M. L. Vidal,  
 O. Vydrov,  M. A. Watson,  J. Wenzel,  M. de Wergifosse,  T. A. Wesolowski,  
 A. White,  J. Witte,  A. Yamada,  Jun Yang,  K. Yao,  S. Yeganeh,  
 S. R. Yost,  Zhi-Qiang You,  A. Zech,  Igor Ying Zhang,  Xing Zhang,  
 Yan Zhao,  Ying Zhu,  B. R. Brooks,  G. K. L. Chan,  C. J. Cramer,  
 M. S. Gordon,  W. J. Hehre,  A. Klamt,  M. W. Schmidt,  C. D. Sherrill,  
 D. G. Truhlar,  A. Aspuru-Guzik,  R. Baer,  A. T. Bell,  N. A. Besley,  
 Jeng-Da Chai,  A. E. DePrince, III,  R. A. DiStasio Jr.,  A. Dreuw,  
 B. D. Dunietz,  T. R. Furlani,  Chao-Ping Hsu,  Yousung Jung,  Jing Kong,  
 D. S. Lambrecht,  WanZhen Liang,  C. Ochsenfeld,  V. A. Rassolov,  
 L. V. Slipchenko,  J. E. Subotnik,  T. Van Voorhis,  J. M. Herbert,  
 A. I. Krylov,  P. M. W. Gill,  M. Head-Gordon

 Contributors to earlier versions of Q-Chem not listed above: 
 R. D. Adamson,  B. Austin,  J. Baker,  G. J. O. Beran,  K. Brandhorst,  
 S. T. Brown,  E. F. C. Byrd,  A. K. Chakraborty,  C.-L. Cheng,  
 Siu Hung Chien,  D. M. Chipman,  D. L. Crittenden,  H. Dachsel,  
 R. J. Doerksen,  A. D. Dutoi,  L. Fusti-Molnar,  W. A. Goddard III,  
 A. Golubeva-Zadorozhnaya,  S. R. Gwaltney,  G. Hawkins,  A. Heyden,  
 S. Hirata,  G. Kedziora,  F. J. Keil,  C. Kelley,  Jihan Kim,  R. A. King,  
 R. Z. Khaliullin,  P. P. Korambath,  W. Kurlancheek,  A. M. Lee,  M. S. Lee,  
 S. V. Levchenko,  Ching Yeh Lin,  D. Liotard,  R. C. Lochan,  I. Lotan,  
 P. E. Maslen,  N. Nair,  D. P. O'Neill,  D. Neuhauser,  E. Neuscamman,  
 C. M. Oana,  R. Olson,  B. Peters,  R. Peverati,  P. A. Pieniazek,  
 Y. M. Rhee,  J. Ritchie,  M. A. Rohrdanz,  E. Rosta,  N. J. Russ,  
 H. F. Schaefer III,  N. E. Schultz,  N. Shenvi,  A. C. Simmonett,  A. Sodt,  
 D. Stuck,  K. S. Thanthiriwatte,  V. Vanovschi,  Tao Wang,  A. Warshel,  
 C. F. Williams,  Q. Wu,  X. Xu,  W. Zhang

 Please cite Q-Chem as follows:
 Y. Shao et al., Mol. Phys. 113, 184-215 (2015)
 DOI: 10.1080/00268976.2014.952696

 Q-Chem 5.1.2 for Intel X86 EM64T Linux

 Parts of Q-Chem use Armadillo 8.300.2 (Tropical Shenanigans).
 http://arma.sourceforge.net/

 Q-Chem begins on Wed Jul  3 19:33:00 2019  

Host: 
0

     Scratch files written to /scratch/xuedong/qchem34961//
 Dec218 |scratch|qcdevops|jenkins|workspace|build_RNUM 6581   
Processing $rem in /home/qwang/software/qchem5.1.2/config/preferences.
 MEM_TOTAL  4000 
Core orbitals will be frozen
Input Ideriv = 1
Curr. Ideriv = -1
Max.  Ideriv = 1

Checking the input file for inconsistencies... 	...done.

--------------------------------------------------------------
User input:
--------------------------------------------------------------

$molecule
0 1
@Si     2.701607000     0.125690888    -0.270400178
@H      3.881940247    -0.764955877    -0.394351651
@H      3.074781685     1.254572160     0.606696963
@H      2.345683281     0.606987292    -1.620593772
@N      1.274958878    -0.611037074     0.407064268
@H      1.327705539    -0.932294968     1.362965471
@H      0.821958737    -1.325136373    -0.145472211
Si     -3.817416828     0.055209942    -0.203983498
H     -3.861441408     0.753768745    -1.516272084
H     -5.207171293    -0.003465500     0.300142235
H     -3.314794686    -1.314954487    -0.460352234
N     -2.806290002     0.749189313     1.011251871
H     -3.031643989     1.664929637     1.364646916
H     -1.807198383     0.650670946     0.874611071
$end

$rem
BASIS = aug-cc-pVTZ
JOB_TYPE  =  SP
METHOD  =  MP2
SCF_MAX_CYCLES  =  200
$end

--------------------------------------------------------------
 ----------------------------------------------------------------
             Standard Nuclear Orientation (Angstroms)
    I     Atom           X                Y                Z
 ----------------------------------------------------------------
    1      GH      2.7016070000     0.1256908880    -0.2704001780
    2      GH      3.8819402470    -0.7649558770    -0.3943516510
    3      GH      3.0747816850     1.2545721600     0.6066969630
    4      GH      2.3456832810     0.6069872920    -1.6205937720
    5      GH      1.2749588780    -0.6110370740     0.4070642680
    6      GH      1.3277055390    -0.9322949680     1.3629654710
    7      GH      0.8219587370    -1.3251363730    -0.1454722110
    8      Si     -3.8174168280     0.0552099420    -0.2039834980
    9      H      -3.8614414080     0.7537687450    -1.5162720840
   10      H      -5.2071712930    -0.0034655000     0.3001422350
   11      H      -3.3147946860    -1.3149544870    -0.4603522340
   12      N      -2.8062900020     0.7491893130     1.0112518710
   13      H      -3.0316439890     1.6649296370     1.3646469160
   14      H      -1.8071983830     0.6506709460     0.8746110710
 ----------------------------------------------------------------
 Nuclear Repulsion Energy =    64.8016662535 hartrees
 There are       13 alpha and       13 beta electrons
 Requested basis set is aug-cc-pVTZ
 There are 150 shells and 422 basis functions

 Total QAlloc Memory Limit   4000 MB
 Mega-Array Size       188 MB
 MEM_STATIC part       192 MB

                       Distance Matrix (Angstroms)
             GH(  1)   GH(  2)   GH(  3)   GH(  4)   GH(  5)   GH(  6)
   GH(  2)  1.483847
   GH(  3)  1.477475  2.394180
   GH(  4)  1.476940  2.397078  2.431414
   GH(  5)  1.742714  2.731723  2.599945  2.596427
   GH(  6)  2.382189  3.104880  2.899415  3.508175  1.009820
   GH(  7)  2.377727  3.120774  3.506546  2.868941  1.010170  1.638746
   Si(  8)  6.519743  7.745257  7.042590  6.347838  5.171997  5.468343
   H (  9)  6.709716  7.970269  7.271107  6.209736  5.651949  6.169284
   H ( 10)  7.930383  9.147357  8.382564  7.817128  6.511420  6.685576
   H ( 11)  6.189397  7.218022  6.969056  6.089420  4.723743  5.002372
   N ( 12)  5.689316  7.000056  5.916594  5.787025  4.344174  4.476719
   H ( 13)  6.157337  7.536317  6.166954  6.240717  4.964254  5.074397
   H ( 14)  4.681451  5.998380  4.926480  4.845037  3.363064  3.545687
             GH(  7)   Si(  8)   H (  9)   H ( 10)   H ( 11)   N ( 12)
   Si(  8)  4.840722
   H (  9)  5.304260  1.487287
   H ( 10)  6.188360  1.479528  2.384062
   H ( 11)  4.148733  1.481791  2.386086  2.424757
   N ( 12)  4.336476  1.726494  2.738931  2.614650  2.585515
   H ( 13)  5.105997  2.381016  3.133444  2.941026  3.505782  1.007101
   H ( 14)  3.443378  2.357736  3.153865  3.509662  2.814011  1.013193
             H ( 13)
   H ( 14)  1.663768
 
 A cutoff of  1.0D-08 yielded   8846 shell pairs
 There are     66850 function pairs (     85244 Cartesian)
 
 -------------------------------------------------------
 OpenMP Integral Computing Module                       
 Release: version 1.0, May 2013, Q-Chem Inc. Pittsburgh 
 -------------------------------------------------------
 Integral Job Info:
 Integral job number is                      11
 Integral operator is                         1
 short-range coefficients                     0
 long-range coefficients              100000000
 Omega coefficients                           0
 if combine SR and LR in K                    0
 Integral screening is                        0
 Integral computing path is                   2
 max size of driver memory is            800000
 size of driver memory is                776718
 size of scratch memory is             29531563
 max col of scratch BK array              10000
 max len of scratch array in speh3          662
 max len of scratch index in speh4           32
 max int batch size is                      520
 min int batch size is                       52
 fixed nKL is                                31
 max L of basis functions is                  3
 order of int derivative is                   0
 number of shells is                        150
 number of basis is                         478
 number of cartesian basis is               478
 number of contracted shell pairs          8846
 number of primitive shell pairs          25511
 maxK2 (contraction) of shell pair          169
 max number of K2 of shell pair               1
 max number of CS2 of shell pair           1636
 max number of PS2 of shell pair           2379
 mem total for path MDJ                  716892
 -------------------------------------------------------
 Smallest overlap matrix eigenvalue = 1.89E-05

 Q-Chem warning in module stvman/mkSTV.C, line 306:

 Overlap eigenvalue is smaller than square root of threshold
 Use THRESH >= 12 to get rid of this warning


 Scale SEOQF with 1.000000e-02/1.000000e-01/1.000000e-01

 Standard Electronic Orientation quadrupole field applied
 Nucleus-field energy     =     0.0000000004 hartrees
 Guess from superposition of atomic densities
 Warning:  Energy on first SCF cycle will be non-variational
 SAD guess density has 26.000000 electrons

 -----------------------------------------------------------------------
  General SCF calculation program by
  Eric Jon Sundstrom, Paul Horn, Yuezhi Mao, Dmitri Zuev, Alec White,
  David Stuck, Shaama M.S., Shane Yost, Joonho Lee, David Small,
  Daniel Levine, Susi Lehtola, Hugh Burton, Evgeny Epifanovsky
 -----------------------------------------------------------------------
 Hartree-Fock
 using 6 threads for integral computing
 -------------------------------------------------------
 OpenMP Integral computing Module                
 Release: version 1.0, May 2013, Q-Chem Inc. Pittsburgh 
 -------------------------------------------------------
 A restricted SCF calculation will be
 performed using DIIS
 SCF converges when DIIS error is below 1.0e-05
 ---------------------------------------
  Cycle       Energy         DIIS error
 ---------------------------------------
    1    -346.4454936361      1.19e-02  
    2    -346.3136799070      1.17e-03  
    3    -346.3440375118      5.41e-04  
    4    -346.3498436571      1.37e-04  
    5    -346.3504514892      1.81e-05  
    6    -346.3504686836      4.38e-06  Convergence criterion met
 ---------------------------------------
 SCF time:   CPU 294.00s  wall 49.00s 
 SCF   energy in the final basis set =     -346.3504686836
 Total energy in the final basis set =     -346.3504686836
 
 Components of the MP2 correlation energy:
        aaaa  correlation energy =        -0.0353386625 au
        abab  correlation energy =        -0.2891835823 au
        bbbb  correlation energy =        -0.0353386625 au
        non-Brillouin singles    =        -0.0000000000 au

 Total  MP2   correlation energy =                    -0.35986091 au
        MP2         total energy =                  -346.71032959 au
 
 --------------------------------------------------------------
 
                    Orbital Energies (a.u.)
 --------------------------------------------------------------
 
 Alpha MOs
 -- Occupied --
-68.778 -15.540  -6.124  -4.231  -4.231  -4.230  -1.138  -0.720
 -0.660  -0.554  -0.492  -0.474  -0.405
 -- Virtual --
  0.017   0.033   0.039   0.041   0.048   0.051   0.060   0.063
  0.068   0.069   0.074   0.078   0.081   0.091   0.091   0.096
  0.106   0.131   0.139   0.141   0.144   0.148   0.152   0.167
  0.172   0.176   0.181   0.183   0.193   0.198   0.201   0.201
  0.204   0.211   0.223   0.226   0.231   0.240   0.248   0.255
  0.262   0.278   0.283   0.288   0.300   0.303   0.306   0.308
  0.317   0.325   0.329   0.340   0.347   0.354   0.357   0.362
  0.364   0.375   0.378   0.384   0.387   0.389   0.396   0.406
  0.414   0.419   0.426   0.428   0.432   0.446   0.447   0.455
  0.462   0.462   0.469   0.476   0.490   0.494   0.506   0.515
  0.522   0.544   0.547   0.563   0.570   0.592   0.597   0.603
  0.604   0.617   0.630   0.635   0.642   0.652   0.659   0.671
  0.676   0.680   0.683   0.692   0.705   0.709   0.713   0.719
  0.726   0.736   0.747   0.762   0.781   0.789   0.796   0.806
  0.810   0.818   0.824   0.830   0.838   0.844   0.854   0.885
  0.905   0.911   0.916   0.929   0.935   0.948   0.959   0.971
  0.975   0.985   0.989   0.992   0.998   0.999   1.013   1.029
  1.036   1.060   1.063   1.066   1.070   1.082   1.095   1.108
  1.115   1.120   1.126   1.134   1.140   1.148   1.154   1.157
  1.163   1.169   1.174   1.176   1.190   1.201   1.205   1.212
  1.219   1.238   1.246   1.253   1.261   1.271   1.279   1.286
  1.298   1.303   1.308   1.317   1.320   1.333   1.342   1.351
  1.356   1.360   1.368   1.386   1.391   1.397   1.402   1.404
  1.417   1.437   1.444   1.453   1.465   1.484   1.492   1.495
  1.505   1.516   1.527   1.536   1.551   1.558   1.567   1.580
  1.608   1.610   1.620   1.656   1.666   1.682   1.692   1.701
  1.722   1.734   1.748   1.754   1.783   1.789   1.814   1.836
  1.850   1.873   1.893   1.906   1.942   1.944   1.954   1.979
  1.981   1.990   1.994   2.025   2.033   2.056   2.071   2.103
  2.119   2.125   2.129   2.148   2.149   2.193   2.215   2.221
  2.246   2.251   2.260   2.297   2.308   2.312   2.341   2.354
  2.395   2.408   2.429   2.446   2.477   2.495   2.499   2.530
  2.549   2.572   2.621   2.709   2.733   2.811   2.838   2.848
  2.869   2.905   2.976   2.984   3.068   3.100   3.131   3.141
  3.166   3.242   3.358   3.525   3.585   3.678   3.685   3.733
  3.758   3.766   3.777   3.963   3.986   4.007   4.011   4.052
  4.088   4.109   4.124   4.129   4.157   4.178   4.191   4.221
  4.234   4.237   4.245   4.248   4.270   4.287   4.297   4.315
  4.352   4.357   4.359   4.385   4.389   4.396   4.457   4.463
  4.474   4.482   4.499   4.511   4.527   4.534   4.548   4.556
  4.562   4.584   4.592   4.600   4.632   4.633   4.639   4.649
  4.664   4.707   4.721   4.733   4.756   4.777   4.790   4.801
  4.813   4.843   4.876   4.948   4.958   4.959   4.995   5.033
  5.040   5.074   5.090   5.092   5.118   5.121   5.136   5.171
  5.188   5.192   5.206   5.229   5.268   5.281   5.307   5.323
  5.340   5.369   5.389   5.411   5.418   5.449   5.523   5.541
  5.569   5.705   5.732   5.901   5.954   5.977   5.987   6.043
  6.056   6.108   6.178   6.178   6.195   6.212   6.379   6.493
  6.615   6.633   6.647   6.781   6.796   7.432   7.486   7.515
  7.600   7.747   7.816   8.101   8.771   9.288   9.399  10.094
 10.958  11.910  14.641  16.573  20.373  20.391  20.922  57.050
106.967
 --------------------------------------------------------------
 
          Ground-State Mulliken Net Atomic Charges

     Atom                 Charge (a.u.)
  ----------------------------------------
      1 GH                   -0.000320
      2 GH                    0.000078
      3 GH                   -0.000069
      4 GH                    0.000030
      5 GH                    0.003732
      6 GH                   -0.000594
      7 GH                   -0.000338
      8 Si                    1.113583
      9 H                    -0.349880
     10 H                    -0.305498
     11 H                    -0.295153
     12 N                    -0.483562
     13 H                     0.108377
     14 H                     0.209612
  ----------------------------------------
  Sum of atomic charges =    -0.000001

 -----------------------------------------------------------------
                    Cartesian Multipole Moments
 -----------------------------------------------------------------
    Charge (ESU x 10^10)
                -0.0000
    Dipole Moment (Debye)
         X       0.7971      Y       1.0390      Z       0.0043
       Tot       1.3096
    Quadrupole Moments (Debye-Ang)
        XX     -25.9913     XY      -2.9660     YY     -20.4842
        XZ       0.1978     YZ       1.9849     ZZ     -24.3088
    Octopole Moments (Debye-Ang^2)
       XXX     252.8054    XXY       3.3957    XYY      72.1265
       YYY     -11.4294    XXZ      -3.4162    XYZ      -6.6287
       YYZ       2.0153    XZZ      84.9690    YZZ      -4.5792
       ZZZ     -10.2541
    Hexadecapole Moments (Debye-Ang^3)
      XXXX   -1840.8634   XXXY      21.9151   XXYY    -279.7611
      XYYY      30.4789   YYYY     -66.6400   XXXZ      15.3404
      XXYZ      18.6703   XYYZ     -11.6898   YYYZ      -7.4610
      XXZZ    -325.9856   XYZZ      14.4505   YYZZ     -23.1029
      XZZZ      14.9394   YZZZ     -11.2713   ZZZZ    -105.7168
 -----------------------------------------------------------------
Archival summary:
1\1\mm2.localdomain\SP\MP2\BasisUnspecified\i115h7\xuedong\WedJul319:36:132019WedJul319:36:132019\0\\#,MP2,BasisUnspecified,\\0,1\Si\H,1,1.47953\H,1,1.48179,2,109.932\H,1,1.48729,2,106.946,3,115.775,0\N,1,1.72649,2,109.04,3,-117.186,0\H,5,1.0071,1,118.779,2,-57.0413,0\H,5,1.01319,1,116.327,2,166.451,0\Gh,7,3.36306,5,163.525,1,-57.3293,0\Gh,8,1.00982,7,92.0415,5,-73.7343,0\Gh,8,1.01017,7,86.0014,5,34.6133,0\Gh,8,1.74271,7,130.218,5,157.026,0\Gh,11,1.47694,8,107.209,7,-56.0774,0\Gh,11,1.47747,8,107.397,7,63.0034,0\Gh,11,1.48385,8,115.462,7,-176.608,0\\HF=-346.350469\MP2=-346.71033\\@

 Total job time:  193.47s(wall), 1153.56s(cpu) 
 Wed Jul  3 19:36:13 2019

        *************************************************************
        *                                                           *
        *  Thank you very much for using Q-Chem.  Have a nice day.  *
        *                                                           *
        *************************************************************


