
Running Job 1 of 1 ../qm_inp/SiH3NH2_SiH3NH2_con2.090.qcinp
qchem ../qm_inp/SiH3NH2_SiH3NH2_con2.090.qcinp_26817.0 /scratch/xuedong/qchem26817/ 1
/home/qwang/software/qchem5.1.2/exe/qcprog.exe_s ../qm_inp/SiH3NH2_SiH3NH2_con2.090.qcinp_26817.0 /scratch/xuedong/qchem26817/
Check license passed

                  Welcome to Q-Chem
     A Quantum Leap Into The Future Of Chemistry


 Q-Chem 5.1, Q-Chem, Inc., Pleasanton, CA (2018)

 Yihan Shao,  Zhengting Gan,  E. Epifanovsky,  A. T. B. Gilbert,  M. Wormit,  
 J. Kussmann,  A. W. Lange,  A. Behn,  Jia Deng,  Xintian Feng,  D. Ghosh,  
 M. Goldey,  P. R. Horn,  L. D. Jacobson,  I. Kaliman,  T. Kus,  A. Landau,  
 Jie Liu,  E. I. Proynov,  R. M. Richard,  R. P. Steele,  E. J. Sundstrom,  
 H. L. Woodcock III,  P. M. Zimmerman,  D. Zuev,  B. Albrecht,  E. Alguire,  
 S. A. Baeppler,  D. Barton,  Z. Benda,  Y. A. Bernard,  E. J. Berquist,  
 K. B. Bravaya,  H. Burton,  D. Casanova,  Chun-Min Chang,  Yunqing Chen,  
 A. Chien,  K. D. Closser,  M. P. Coons,  S. Coriani,  S. Dasgupta,  
 A. L. Dempwolff,  M. Diedenhofen,  Hainam Do,  R. G. Edgar,  Po-Tung Fang,  
 S. Faraji,  S. Fatehi,  Qingguo Feng,  K. D. Fenk,  J. Fosso-Tande,  
 J. Gayvert,  Qinghui Ge,  A. Ghysels,  G. Gidofalvi,  J. Gomes,  
 J. Gonthier,  A. Gunina,  D. Hait,  M. W. D. Hanson-Heine,  
 P. H. P. Harbach,  A. W. Hauser,  J. E. Herr,  E. G. Hohenstein,  
 Z. C. Holden,  Kerwin Hui,  B. C. Huynh,  T.-C. Jagau,  Hyunjun Ji,  
 B. Kaduk,  K. Khistyaev,  Jaehoon Kim,  P. Klunzinger,  K. Koh,  
 D. Kosenkov,  L. Koulias,  T. Kowalczyk,  C. M. Krauter,  A. Kunitsa,  
 Ka Un Lao,  A. Laurent,  K. V. Lawler,  Joonho Lee,  D. Lefrancois,  
 S. Lehtola,  D. S. Levine,  Yi-Pei Li,  You-Sheng Lin,  Fenglai Liu,  
 E. Livshits,  A. Luenser,  P. Manohar,  E. Mansoor,  S. F. Manzer,  
 Shan-Ping Mao,  Yuezhi Mao,  N. Mardirossian,  A. V. Marenich,  
 T. Markovich,  L. A. Martinez-Martinez,  S. A. Maurer,  N. J. Mayhall,  
 S. C. McKenzie,  J.-M. Mewes,  A. F. Morrison,  J. W. Mullinax,  K. Nanda,  
 T. S. Nguyen-Beck,  R. Olivares-Amaya,  J. A. Parkhill,  T. M. Perrine,  
 F. Plasser,  P. Pokhilko,  S. Prager,  A. Prociuk,  E. Ramos,  D. R. Rehn,  
 F. Rob,  M. Schneider,  N. Sergueev,  S. M. Sharada,  S. Sharma,  
 D. W. Small,  T. Stauch,  T. Stein,  Yu-Chuan Su,  A. J. W. Thom,  
 A. Tkatchenko,  T. Tsuchimochi,  N. M. Tubman,  L. Vogt,  M. L. Vidal,  
 O. Vydrov,  M. A. Watson,  J. Wenzel,  M. de Wergifosse,  T. A. Wesolowski,  
 A. White,  J. Witte,  A. Yamada,  Jun Yang,  K. Yao,  S. Yeganeh,  
 S. R. Yost,  Zhi-Qiang You,  A. Zech,  Igor Ying Zhang,  Xing Zhang,  
 Yan Zhao,  Ying Zhu,  B. R. Brooks,  G. K. L. Chan,  C. J. Cramer,  
 M. S. Gordon,  W. J. Hehre,  A. Klamt,  M. W. Schmidt,  C. D. Sherrill,  
 D. G. Truhlar,  A. Aspuru-Guzik,  R. Baer,  A. T. Bell,  N. A. Besley,  
 Jeng-Da Chai,  A. E. DePrince, III,  R. A. DiStasio Jr.,  A. Dreuw,  
 B. D. Dunietz,  T. R. Furlani,  Chao-Ping Hsu,  Yousung Jung,  Jing Kong,  
 D. S. Lambrecht,  WanZhen Liang,  C. Ochsenfeld,  V. A. Rassolov,  
 L. V. Slipchenko,  J. E. Subotnik,  T. Van Voorhis,  J. M. Herbert,  
 A. I. Krylov,  P. M. W. Gill,  M. Head-Gordon

 Contributors to earlier versions of Q-Chem not listed above: 
 R. D. Adamson,  B. Austin,  J. Baker,  G. J. O. Beran,  K. Brandhorst,  
 S. T. Brown,  E. F. C. Byrd,  A. K. Chakraborty,  C.-L. Cheng,  
 Siu Hung Chien,  D. M. Chipman,  D. L. Crittenden,  H. Dachsel,  
 R. J. Doerksen,  A. D. Dutoi,  L. Fusti-Molnar,  W. A. Goddard III,  
 A. Golubeva-Zadorozhnaya,  S. R. Gwaltney,  G. Hawkins,  A. Heyden,  
 S. Hirata,  G. Kedziora,  F. J. Keil,  C. Kelley,  Jihan Kim,  R. A. King,  
 R. Z. Khaliullin,  P. P. Korambath,  W. Kurlancheek,  A. M. Lee,  M. S. Lee,  
 S. V. Levchenko,  Ching Yeh Lin,  D. Liotard,  R. C. Lochan,  I. Lotan,  
 P. E. Maslen,  N. Nair,  D. P. O'Neill,  D. Neuhauser,  E. Neuscamman,  
 C. M. Oana,  R. Olson,  B. Peters,  R. Peverati,  P. A. Pieniazek,  
 Y. M. Rhee,  J. Ritchie,  M. A. Rohrdanz,  E. Rosta,  N. J. Russ,  
 H. F. Schaefer III,  N. E. Schultz,  N. Shenvi,  A. C. Simmonett,  A. Sodt,  
 D. Stuck,  K. S. Thanthiriwatte,  V. Vanovschi,  Tao Wang,  A. Warshel,  
 C. F. Williams,  Q. Wu,  X. Xu,  W. Zhang

 Please cite Q-Chem as follows:
 Y. Shao et al., Mol. Phys. 113, 184-215 (2015)
 DOI: 10.1080/00268976.2014.952696

 Q-Chem 5.1.2 for Intel X86 EM64T Linux

 Parts of Q-Chem use Armadillo 8.300.2 (Tropical Shenanigans).
 http://arma.sourceforge.net/

 Q-Chem begins on Tue Jul  2 18:53:38 2019  

Host: 
0

     Scratch files written to /scratch/xuedong/qchem26817//
 Dec218 |scratch|qcdevops|jenkins|workspace|build_RNUM 6581   
Processing $rem in /home/qwang/software/qchem5.1.2/config/preferences.
 MEM_TOTAL  4000 
Core orbitals will be frozen
Input Ideriv = 1
Curr. Ideriv = -1
Max.  Ideriv = 1

Checking the input file for inconsistencies... 	...done.

--------------------------------------------------------------
User input:
--------------------------------------------------------------
$molecule
0 1
--
0 1
Si     2.701607000     0.125690888    -0.270400178
H     3.881940247    -0.764955877    -0.394351651
H     3.074781685     1.254572160     0.606696963
H     2.345683281     0.606987292    -1.620593772
N     1.274958878    -0.611037074     0.407064268
H     1.327705539    -0.932294968     1.362965471
H     0.821958737    -1.325136373    -0.145472211
--
0 1
Si    -2.341274293    -0.054517105    -0.264790536
H    -2.385298874     0.644041698    -1.577079122
H    -3.731028758    -0.113192547     0.239335196
H    -1.838652151    -1.424681534    -0.521159272
N    -1.330147467     0.639462266     0.950444833
H    -1.555501454     1.555202590     1.303839878
H    -0.331055848     0.540943899     0.813804032
$end

$rem
BASIS = aug-cc-pVTZ
JOB_TYPE  =  BSSE
METHOD  =  MP2
SCF_CONVERGENCE  =  8
SCF_MAX_CYCLES  =  200
$end

--------------------------------------------------------------
 ----------------------------------------------------------------
             Standard Nuclear Orientation (Angstroms)
    I     Atom           X                Y                Z
 ----------------------------------------------------------------
    1      Si     -2.5858853211    -0.1143339865     0.2620319231
    2      H      -3.7917509812    -0.6264234090    -0.4347138230
    3      H      -2.9032575975     1.2279331396     0.7916784722
    4      H      -2.2591735222    -1.0467290849     1.3598704561
    5      N      -1.1584610369     0.0394187766    -0.7258299247
    6      H      -1.1901875083     0.7015993585    -1.4875688974
    7      H      -0.7408614456    -0.8161964864    -1.0634341310
    8      Si      2.4485938726    -0.3986272527     0.0713628100
    9      H       2.4703426166    -1.1759817105     1.3391447064
   10      H       3.8511348877    -0.0488277964    -0.2441083861
   11      H       1.9036518072    -1.2944664363    -0.9756399652
   12      N       1.4930122121     1.0392487169     0.0587845072
   13      H       1.7522914459     1.7990584934     0.6668274340
   14      H       0.4880323496     0.9108188257     0.0497357918
 ----------------------------------------------------------------
 Molecular Point Group                 C1    NOp =  1
 Largest Abelian Subgroup              C1    NOp =  1
 Nuclear Repulsion Energy =   214.0588885509 hartrees
 There are       26 alpha and       26 beta electrons
 Requested basis set is aug-cc-pVTZ
 There are 150 shells and 422 basis functions

 Total QAlloc Memory Limit   4000 MB
 Mega-Array Size       188 MB
 MEM_STATIC part       192 MB

                       Distance Matrix (Angstroms)
             Si(  1)   H (  2)   H (  3)   H (  4)   N (  5)   H (  6)
   H (  2)  1.483847
   H (  3)  1.477475  2.394180
   H (  4)  1.476940  2.397078  2.431414
   N (  5)  1.742714  2.731723  2.599945  2.596427
   H (  6)  2.382189  3.104880  2.899415  3.508175  1.009820
   H (  7)  2.377727  3.120774  3.506546  2.868941  1.010170  1.638746
   Si(  8)  5.046103  6.264975  5.639758  4.923755  3.719979  4.108710
   H (  9)  5.277567  6.531646  5.912200  4.731327  4.348509  4.991503
   H ( 10)  6.457221  7.667050  6.951603  6.395657  5.033477  5.246357
   H ( 11)  4.804216  5.759904  5.708966  4.779655  3.349357  3.717283
   N ( 12)  4.243756  5.562978  4.460933  4.485870  2.940338  3.115249
   H ( 13)  4.758646  6.150834  4.692111  4.966957  3.675365  3.808415
   H ( 14)  3.247303  4.573221  3.485956  3.618782  2.017865  2.285498
             H (  7)   Si(  8)   H (  9)   H ( 10)   H ( 11)   N ( 12)
   Si(  8)  3.410975
   H (  9)  4.026619  1.487287
   H ( 10)  4.727217  1.479528  2.384062
   H ( 11)  2.688847  1.481791  2.386086  2.424757
   N ( 12)  3.113237  1.726494  2.738931  2.614650  2.585515
   H ( 13)  4.006142  2.381016  3.133444  2.941026  3.505782  1.007101
   H ( 14)  2.394141  2.357736  3.153865  3.509662  2.814011  1.013193
             H ( 13)
   H ( 14)  1.663768
 
 A cutoff of  1.0D-11 yielded  10603 shell pairs
 There are     83639 function pairs (    107668 Cartesian)
 
 -------------------------------------------------------
 OpenMP Integral Computing Module                       
 Release: version 1.0, May 2013, Q-Chem Inc. Pittsburgh 
 -------------------------------------------------------
 Integral Job Info:
 Integral job number is                      11
 Integral operator is                         1
 short-range coefficients                     0
 long-range coefficients              100000000
 Omega coefficients                           0
 if combine SR and LR in K                    0
 Integral screening is                        0
 Integral computing path is                   2
 max size of driver memory is            800000
 size of driver memory is                776718
 size of scratch memory is             29531563
 max col of scratch BK array              10000
 max len of scratch array in speh3          662
 max len of scratch index in speh4           32
 max int batch size is                      520
 min int batch size is                       52
 fixed nKL is                                31
 max L of basis functions is                  3
 order of int derivative is                   0
 number of shells is                        150
 number of basis is                         478
 number of cartesian basis is               478
 number of contracted shell pairs         10603
 number of primitive shell pairs          30927
 maxK2 (contraction) of shell pair          169
 max number of K2 of shell pair               1
 max number of CS2 of shell pair           1843
 max number of PS2 of shell pair           2925
 mem total for path MDJ                  766796
 -------------------------------------------------------
 Smallest overlap matrix eigenvalue = 1.56E-05

 Scale SEOQF with 1.000000e-01/1.000000e-01/1.000000e-01

 Standard Electronic Orientation quadrupole field applied
 Nucleus-field energy     =     0.0000000093 hartrees
 Guess MOs from converged MOs on fragments

-----------------------------------------------------------------
 SCF on fragment 1 out of 2
/home/qwang/software/qchem5.1.2/exe/qcprog.exe /scratch/xuedong/qchem26817/Frg1.input /scratch/xuedong/qchem26817/Frg1/ > /dev/null 
 SCF on fragment 2 out of 2
/home/qwang/software/qchem5.1.2/exe/qcprog.exe /scratch/xuedong/qchem26817/Frg2.input /scratch/xuedong/qchem26817/Frg2/ > /dev/null 
-----------------------------------------------------------------
 Done with SCF on isolated fragments
-----------------------------------------------------------------

 User-specified occupied guess orbitals will be used
 A restricted Hartree-Fock SCF calculation will be
 performed using Pulay DIIS extrapolation
 SCF converges when DIIS error is below 1.0E-08
 using 6 threads for integral computing
 -------------------------------------------------------
 OpenMP Integral computing Module                
 Release: version 1.0, May 2013, Q-Chem Inc. Pittsburgh 
 -------------------------------------------------------
 ---------------------------------------
  Cycle       Energy         DIIS Error
 ---------------------------------------
    1    -692.6943535842      3.74E-04
    2    -692.6991683938      8.69E-05
    3    -692.6995682728      2.75E-05
    4    -692.6996035534      1.20E-05
    5    -692.6996092371      2.99E-06
    6    -692.6996096914      6.15E-07
    7    -692.6996097172      1.37E-07
    8    -692.6996097185      6.54E-08
    9    -692.6996097186      1.54E-08
   10    -692.6996097186      5.18E-09 Convergence criterion met
 ---------------------------------------
 SCF time:  CPU 1295.56 s  wall 216.05 s

-----------------------------------------------------------------
 SCF CP correction for fragment 1 out of 2
/home/qwang/software/qchem5.1.2/exe/qcprog.exe /scratch/xuedong/qchem26817/Frg1.input /scratch/xuedong/qchem26817/Frg1BSSE/ > /dev/null 
 SCF CP correction for fragment 2 out of 2
/home/qwang/software/qchem5.1.2/exe/qcprog.exe /scratch/xuedong/qchem26817/Frg2.input /scratch/xuedong/qchem26817/Frg2BSSE/ > /dev/null 
-----------------------------------------------------------------
 Done with counterpoise correction on fragments
-----------------------------------------------------------------

 SCF   energy in the final basis set = -692.69960972
 Total energy in the final basis set = -692.69960972
 
 Components of the MP2 correlation energy:
        aaaa  correlation energy =        -0.0723277016 au
        abab  correlation energy =        -0.5821075816 au
        bbbb  correlation energy =        -0.0723277016 au
        non-Brillouin singles    =        -0.0000000000 au

 Total  MP2   correlation energy =                    -0.72676298 au
        MP2         total energy =                  -693.42637270 au
 
 --------------------------------------------------------------
 
                    Orbital Energies (a.u.)
 --------------------------------------------------------------
 
 Alpha MOs
 -- Occupied --
-68.789 -68.770 -15.550 -15.517  -6.135  -6.116  -4.242  -4.241
 -4.241  -4.223  -4.223  -4.222  -1.153  -1.118  -0.732  -0.711
 -0.666  -0.646  -0.565  -0.542  -0.500  -0.486  -0.482  -0.469
 -0.417  -0.388
 -- Virtual --
  0.027   0.039   0.041   0.041   0.054   0.059   0.061   0.062
  0.070   0.075   0.079   0.082   0.086   0.094   0.100   0.107
  0.133   0.136   0.146   0.150   0.154   0.155   0.163   0.168
  0.171   0.177   0.183   0.191   0.196   0.202   0.207   0.211
  0.214   0.219   0.235   0.236   0.248   0.255   0.257   0.266
  0.275   0.281   0.285   0.298   0.305   0.312   0.318   0.323
  0.328   0.336   0.338   0.345   0.352   0.361   0.365   0.367
  0.377   0.382   0.387   0.396   0.401   0.406   0.408   0.415
  0.423   0.429   0.440   0.447   0.454   0.463   0.466   0.470
  0.478   0.486   0.497   0.503   0.508   0.519   0.528   0.539
  0.542   0.554   0.564   0.567   0.579   0.591   0.605   0.609
  0.614   0.622   0.632   0.636   0.639   0.645   0.654   0.662
  0.667   0.673   0.680   0.685   0.688   0.689   0.695   0.710
  0.719   0.731   0.736   0.750   0.769   0.773   0.787   0.810
  0.820   0.841   0.848   0.867   0.874   0.889   0.904   0.917
  0.932   0.940   0.952   0.960   0.972   0.973   0.981   0.989
  0.997   0.999   1.001   1.005   1.021   1.028   1.037   1.045
  1.059   1.064   1.076   1.084   1.086   1.093   1.106   1.118
  1.134   1.137   1.139   1.158   1.163   1.168   1.171   1.186
  1.193   1.201   1.206   1.209   1.217   1.222   1.230   1.236
  1.246   1.256   1.268   1.276   1.282   1.290   1.302   1.310
  1.317   1.324   1.331   1.337   1.343   1.352   1.357   1.368
  1.371   1.380   1.390   1.403   1.410   1.412   1.419   1.429
  1.437   1.450   1.461   1.469   1.474   1.481   1.486   1.488
  1.502   1.504   1.517   1.529   1.544   1.562   1.568   1.589
  1.594   1.603   1.631   1.646   1.653   1.666   1.696   1.724
  1.743   1.758   1.762   1.786   1.798   1.829   1.845   1.858
  1.874   1.895   1.905   1.918   1.935   1.945   1.983   1.986
  2.007   2.023   2.044   2.049   2.053   2.068   2.090   2.104
  2.112   2.124   2.143   2.152   2.178   2.188   2.203   2.223
  2.237   2.245   2.255   2.264   2.279   2.285   2.336   2.343
  2.366   2.395   2.407   2.418   2.440   2.450   2.477   2.497
  2.529   2.564   2.606   2.640   2.670   2.726   2.780   2.824
  2.989   3.134   3.164   3.166   3.238   3.286   3.411   3.443
  3.652   3.682   3.694   3.713   3.720   3.748   3.792   3.852
  3.870   3.893   3.987   3.999   4.018   4.042   4.045   4.065
  4.070   4.097   4.109   4.114   4.126   4.135   4.141   4.154
  4.158   4.173   4.187   4.192   4.199   4.211   4.223   4.230
  4.260   4.274   4.279   4.291   4.293   4.314   4.321   4.338
  4.342   4.383   4.396   4.403   4.434   4.453   4.494   4.507
  4.508   4.533   4.543   4.555   4.574   4.575   4.584   4.590
  4.610   4.627   4.641   4.662   4.683   4.689   4.721   4.752
  4.767   4.776   4.793   4.807   4.818   4.825   4.835   4.846
  4.859   4.871   4.896   4.911   4.950   4.992   5.002   5.015
  5.065   5.074   5.109   5.119   5.141   5.177   5.178   5.209
  5.218   5.252   5.273   5.307   5.354   5.366   5.406   5.437
  5.486   5.503   5.592   5.599   5.636   5.704   5.912   5.980
  5.997   6.033   6.088   6.148   6.164   6.224   6.241   6.293
  6.534   6.625   6.659   6.791   6.852   6.976   7.811   7.834
  8.895   9.062  17.127  17.289
 --------------------------------------------------------------
 
          Ground-State Mulliken Net Atomic Charges

     Atom                 Charge (a.u.)
  ----------------------------------------
      1 Si                    1.005163
      2 H                    -0.369044
      3 H                    -0.292481
      4 H                    -0.297510
      5 N                    -0.145729
      6 H                     0.064663
      7 H                     0.077656
      8 Si                    1.087350
      9 H                    -0.359460
     10 H                    -0.332928
     11 H                    -0.310570
     12 N                    -0.526739
     13 H                     0.112767
     14 H                     0.286863
  ----------------------------------------
  Sum of atomic charges =     0.000000

 -----------------------------------------------------------------
                    Cartesian Multipole Moments
 -----------------------------------------------------------------
    Charge (ESU x 10^10)
                -0.0000
    Dipole Moment (Debye)
         X      -1.3789      Y       0.1979      Z      -0.3572
       Tot       1.4381
    Quadrupole Moments (Debye-Ang)
        XX     -48.1292     XY       0.1764     YY     -43.4630
        XZ       2.4960     YZ       1.9224     ZZ     -43.6281
    Octopole Moments (Debye-Ang^2)
       XXX      -2.5886    XXY       5.8401    XYY       0.6530
       YYY       7.4616    XXZ       3.7724    XYZ       6.9144
       YYZ      -0.4655    XZZ      -3.6048    YZZ       5.5160
       ZZZ      -7.9805
    Hexadecapole Moments (Debye-Ang^3)
      XXXX   -1540.7126   XXXY       3.3774   XXYY    -271.7910
      XYYY      14.5127   YYYY    -160.8453   XXXZ       0.2429
      XXYZ       5.3533   XYYZ      13.3362   YYYZ       9.8657
      XXZZ    -266.9769   XYZZ       3.9626   YYZZ     -49.5208
      XZZZ       8.0227   YZZZ       1.3980   ZZZZ    -129.2284
 -----------------------------------------------------------------

 ---------------------------------------------------------------------
 *                     Fragment's binding energy                     *
 ---------------------------------------------------------------------
    Fragment           E(TOTAL)         E(CP-CORR)           DE(BSSE)
 ---------------------------------------------------------------------
           1    -346.7103320648    -346.7111468787       0.0008148139
           2    -346.7101939122    -346.7107382988       0.0005443866
     Complex    -693.4263727034
 ---------------------------------------------------------------------
  DE, kJ/mol     -15.3507622171     -11.7821389821
 ---------------------------------------------------------------------

Archival summary:
1\1\mm2.localdomain\SP\MP2\BasisUnspecified\i2210\xuedong\TueJul219:20:192019TueJul219:20:192019\0\\#,MP2,BasisUnspecified,\\0,1\Si\H,1,1.47953\H,1,1.48179,2,109.932\H,1,1.48729,2,106.946,3,115.775,0\N,1,1.72649,2,109.04,3,-117.186,0\H,5,1.0071,1,118.779,2,-57.0413,0\H,5,1.01319,1,116.327,2,166.451,0\N,7,2.01787,5,150.171,1,-49.4266,0\H,8,1.00982,7,91.8559,5,-81.5196,0\H,8,1.01017,7,99.0276,5,27.4813,0\Si,8,1.74271,7,119.246,5,155.435,0\H,11,1.47694,8,107.209,7,-66.0665,0\H,11,1.47747,8,107.397,7,53.0143,0\H,11,1.48385,8,115.462,7,173.403,0\\HF=-692.69961\MP2=-693.426373\\@

 Total job time:  1600.51s(wall), 4436.60s(cpu) 
 Tue Jul  2 19:20:19 2019

        *************************************************************
        *                                                           *
        *  Thank you very much for using Q-Chem.  Have a nice day.  *
        *                                                           *
        *************************************************************


