
Running Job 1 of 3 ../qm_inp/SiH3NH2_SiH3NH2_con2.200.qcinp
qchem ../qm_inp/SiH3NH2_SiH3NH2_con2.200.qcinp_35069.0 /scratch/xuedong/qchem35069/ 1
/home/qwang/software/qchem5.1.2/exe/qcprog.exe_s ../qm_inp/SiH3NH2_SiH3NH2_con2.200.qcinp_35069.0 /scratch/xuedong/qchem35069/
Check license passed

                  Welcome to Q-Chem
     A Quantum Leap Into The Future Of Chemistry


 Q-Chem 5.1, Q-Chem, Inc., Pleasanton, CA (2018)

 Yihan Shao,  Zhengting Gan,  E. Epifanovsky,  A. T. B. Gilbert,  M. Wormit,  
 J. Kussmann,  A. W. Lange,  A. Behn,  Jia Deng,  Xintian Feng,  D. Ghosh,  
 M. Goldey,  P. R. Horn,  L. D. Jacobson,  I. Kaliman,  T. Kus,  A. Landau,  
 Jie Liu,  E. I. Proynov,  R. M. Richard,  R. P. Steele,  E. J. Sundstrom,  
 H. L. Woodcock III,  P. M. Zimmerman,  D. Zuev,  B. Albrecht,  E. Alguire,  
 S. A. Baeppler,  D. Barton,  Z. Benda,  Y. A. Bernard,  E. J. Berquist,  
 K. B. Bravaya,  H. Burton,  D. Casanova,  Chun-Min Chang,  Yunqing Chen,  
 A. Chien,  K. D. Closser,  M. P. Coons,  S. Coriani,  S. Dasgupta,  
 A. L. Dempwolff,  M. Diedenhofen,  Hainam Do,  R. G. Edgar,  Po-Tung Fang,  
 S. Faraji,  S. Fatehi,  Qingguo Feng,  K. D. Fenk,  J. Fosso-Tande,  
 J. Gayvert,  Qinghui Ge,  A. Ghysels,  G. Gidofalvi,  J. Gomes,  
 J. Gonthier,  A. Gunina,  D. Hait,  M. W. D. Hanson-Heine,  
 P. H. P. Harbach,  A. W. Hauser,  J. E. Herr,  E. G. Hohenstein,  
 Z. C. Holden,  Kerwin Hui,  B. C. Huynh,  T.-C. Jagau,  Hyunjun Ji,  
 B. Kaduk,  K. Khistyaev,  Jaehoon Kim,  P. Klunzinger,  K. Koh,  
 D. Kosenkov,  L. Koulias,  T. Kowalczyk,  C. M. Krauter,  A. Kunitsa,  
 Ka Un Lao,  A. Laurent,  K. V. Lawler,  Joonho Lee,  D. Lefrancois,  
 S. Lehtola,  D. S. Levine,  Yi-Pei Li,  You-Sheng Lin,  Fenglai Liu,  
 E. Livshits,  A. Luenser,  P. Manohar,  E. Mansoor,  S. F. Manzer,  
 Shan-Ping Mao,  Yuezhi Mao,  N. Mardirossian,  A. V. Marenich,  
 T. Markovich,  L. A. Martinez-Martinez,  S. A. Maurer,  N. J. Mayhall,  
 S. C. McKenzie,  J.-M. Mewes,  A. F. Morrison,  J. W. Mullinax,  K. Nanda,  
 T. S. Nguyen-Beck,  R. Olivares-Amaya,  J. A. Parkhill,  T. M. Perrine,  
 F. Plasser,  P. Pokhilko,  S. Prager,  A. Prociuk,  E. Ramos,  D. R. Rehn,  
 F. Rob,  M. Schneider,  N. Sergueev,  S. M. Sharada,  S. Sharma,  
 D. W. Small,  T. Stauch,  T. Stein,  Yu-Chuan Su,  A. J. W. Thom,  
 A. Tkatchenko,  T. Tsuchimochi,  N. M. Tubman,  L. Vogt,  M. L. Vidal,  
 O. Vydrov,  M. A. Watson,  J. Wenzel,  M. de Wergifosse,  T. A. Wesolowski,  
 A. White,  J. Witte,  A. Yamada,  Jun Yang,  K. Yao,  S. Yeganeh,  
 S. R. Yost,  Zhi-Qiang You,  A. Zech,  Igor Ying Zhang,  Xing Zhang,  
 Yan Zhao,  Ying Zhu,  B. R. Brooks,  G. K. L. Chan,  C. J. Cramer,  
 M. S. Gordon,  W. J. Hehre,  A. Klamt,  M. W. Schmidt,  C. D. Sherrill,  
 D. G. Truhlar,  A. Aspuru-Guzik,  R. Baer,  A. T. Bell,  N. A. Besley,  
 Jeng-Da Chai,  A. E. DePrince, III,  R. A. DiStasio Jr.,  A. Dreuw,  
 B. D. Dunietz,  T. R. Furlani,  Chao-Ping Hsu,  Yousung Jung,  Jing Kong,  
 D. S. Lambrecht,  WanZhen Liang,  C. Ochsenfeld,  V. A. Rassolov,  
 L. V. Slipchenko,  J. E. Subotnik,  T. Van Voorhis,  J. M. Herbert,  
 A. I. Krylov,  P. M. W. Gill,  M. Head-Gordon

 Contributors to earlier versions of Q-Chem not listed above: 
 R. D. Adamson,  B. Austin,  J. Baker,  G. J. O. Beran,  K. Brandhorst,  
 S. T. Brown,  E. F. C. Byrd,  A. K. Chakraborty,  C.-L. Cheng,  
 Siu Hung Chien,  D. M. Chipman,  D. L. Crittenden,  H. Dachsel,  
 R. J. Doerksen,  A. D. Dutoi,  L. Fusti-Molnar,  W. A. Goddard III,  
 A. Golubeva-Zadorozhnaya,  S. R. Gwaltney,  G. Hawkins,  A. Heyden,  
 S. Hirata,  G. Kedziora,  F. J. Keil,  C. Kelley,  Jihan Kim,  R. A. King,  
 R. Z. Khaliullin,  P. P. Korambath,  W. Kurlancheek,  A. M. Lee,  M. S. Lee,  
 S. V. Levchenko,  Ching Yeh Lin,  D. Liotard,  R. C. Lochan,  I. Lotan,  
 P. E. Maslen,  N. Nair,  D. P. O'Neill,  D. Neuhauser,  E. Neuscamman,  
 C. M. Oana,  R. Olson,  B. Peters,  R. Peverati,  P. A. Pieniazek,  
 Y. M. Rhee,  J. Ritchie,  M. A. Rohrdanz,  E. Rosta,  N. J. Russ,  
 H. F. Schaefer III,  N. E. Schultz,  N. Shenvi,  A. C. Simmonett,  A. Sodt,  
 D. Stuck,  K. S. Thanthiriwatte,  V. Vanovschi,  Tao Wang,  A. Warshel,  
 C. F. Williams,  Q. Wu,  X. Xu,  W. Zhang

 Please cite Q-Chem as follows:
 Y. Shao et al., Mol. Phys. 113, 184-215 (2015)
 DOI: 10.1080/00268976.2014.952696

 Q-Chem 5.1.2 for Intel X86 EM64T Linux

 Parts of Q-Chem use Armadillo 8.300.2 (Tropical Shenanigans).
 http://arma.sourceforge.net/

 Q-Chem begins on Wed Jul  3 19:36:14 2019  

Host: 
0

     Scratch files written to /scratch/xuedong/qchem35069//
 Dec218 |scratch|qcdevops|jenkins|workspace|build_RNUM 6581   
Processing $rem in /home/qwang/software/qchem5.1.2/config/preferences.
 MEM_TOTAL  4000 
Core orbitals will be frozen
Input Ideriv = 1
Curr. Ideriv = -1
Max.  Ideriv = 1

Checking the input file for inconsistencies... 	...done.

--------------------------------------------------------------
User input:
--------------------------------------------------------------
$molecule
0 1
Si     2.701607000     0.125690888    -0.270400178
H     3.881940247    -0.764955877    -0.394351651
H     3.074781685     1.254572160     0.606696963
H     2.345683281     0.606987292    -1.620593772
N     1.274958878    -0.611037074     0.407064268
H     1.327705539    -0.932294968     1.362965471
H     0.821958737    -1.325136373    -0.145472211
Si    -5.021940330     0.144746558    -0.154365318
H    -5.065964911     0.843305361    -1.466653904
H    -6.411694795     0.086071116     0.349760415
H    -4.519318188    -1.225417871    -0.410734054
N    -4.010813504     0.838725929     1.060870051
H    -4.236167491     1.754466253     1.414265096
H    -3.011721886     0.740207561     0.924229251
$end

$rem
BASIS = aug-cc-pVTZ
JOB_TYPE  =  SP
METHOD  =  MP2
SCF_MAX_CYCLES  =  200
$end

--------------------------------------------------------------
 ----------------------------------------------------------------
             Standard Nuclear Orientation (Angstroms)
    I     Atom           X                Y                Z
 ----------------------------------------------------------------
    1      Si     -3.9258212986    -0.0688303420     0.3067515238
    2      H      -5.1581818147    -0.5729811906    -0.3481696027
    3      H      -4.2023556525     1.2936150501     0.8069544539
    4      H      -3.5932394863    -0.9785737153     1.4216986062
    5      N      -2.5189747729     0.0275949560    -0.7172289664
    6      H      -2.5545497536     0.6698195587    -1.4957005042
    7      H      -2.1275133558    -0.8455534999    -1.0409776809
    8      Si      3.7855862732    -0.4319851875     0.0434600779
    9      H       3.8205996331    -1.1756438998     1.3310041285
   10      H       5.1874239556    -0.1212102461    -0.3132934547
   11      H       3.1975396058    -1.3433126526    -0.9661873245
   12      N       2.8604890375     1.0254421411     0.0137529411
   13      H       3.1498783467     1.7953464768     0.5949189758
   14      H       1.8530890263     0.9186518509     0.0311221554
 ----------------------------------------------------------------
 Molecular Point Group                 C1    NOp =  1
 Largest Abelian Subgroup              C1    NOp =  1
 Nuclear Repulsion Energy =   181.0764910777 hartrees
 There are       26 alpha and       26 beta electrons
 Requested basis set is aug-cc-pVTZ
 There are 150 shells and 422 basis functions

 Total QAlloc Memory Limit   4000 MB
 Mega-Array Size       188 MB
 MEM_STATIC part       192 MB

                       Distance Matrix (Angstroms)
             Si(  1)   H (  2)   H (  3)   H (  4)   N (  5)   H (  6)
   H (  2)  1.483847
   H (  3)  1.477475  2.394180
   H (  4)  1.476940  2.397078  2.431414
   N (  5)  1.742714  2.731723  2.599945  2.596427
   H (  6)  2.382189  3.104880  2.899415  3.508175  1.009820
   H (  7)  2.377727  3.120774  3.506546  2.868941  1.010170  1.638746
   Si(  8)  7.724442  8.953449  8.207791  7.526312  6.366895  6.616669
   H (  9)  7.891842  9.154307  8.410688  7.417012  6.770026  7.213773
   H ( 10)  9.134464 10.355524  9.561624  8.991403  7.718412  7.871593
   H ( 11)  7.347581  8.413884  8.053314  7.207615  5.883868  6.117158
   N ( 12)  6.880210  8.184438  7.112303  6.902826  5.519843  5.632722
   H ( 13)  7.322822  8.690354  7.372383  7.338108  6.081330  6.178835
   H ( 14)  5.869148  7.178214  6.116447  5.932593  4.524263  4.671229
             H (  7)   Si(  8)   H (  9)   H ( 10)   H ( 11)   N ( 12)
   Si(  8)  6.025927
   H (  9)  6.412122  1.487287
   H ( 10)  7.386644  1.479528  2.384062
   H ( 11)  5.348789  1.481791  2.386086  2.424757
   N ( 12)  5.430769  1.726494  2.738931  2.614650  2.585515
   H ( 13)  6.123837  2.381016  3.133444  2.941026  3.505782  1.007101
   H ( 14)  4.484085  2.357736  3.153865  3.509662  2.814011  1.013193
             H ( 13)
   H ( 14)  1.663768
 
 A cutoff of  1.0D-08 yielded   8043 shell pairs
 There are     59299 function pairs (     75177 Cartesian)
 
 -------------------------------------------------------
 OpenMP Integral Computing Module                       
 Release: version 1.0, May 2013, Q-Chem Inc. Pittsburgh 
 -------------------------------------------------------
 Integral Job Info:
 Integral job number is                      11
 Integral operator is                         1
 short-range coefficients                     0
 long-range coefficients              100000000
 Omega coefficients                           0
 if combine SR and LR in K                    0
 Integral screening is                        0
 Integral computing path is                   2
 max size of driver memory is            800000
 size of driver memory is                776718
 size of scratch memory is             29531563
 max col of scratch BK array              10000
 max len of scratch array in speh3          662
 max len of scratch index in speh4           32
 max int batch size is                      520
 min int batch size is                       52
 fixed nKL is                                31
 max L of basis functions is                  3
 order of int derivative is                   0
 number of shells is                        150
 number of basis is                         478
 number of cartesian basis is               478
 number of contracted shell pairs          8043
 number of primitive shell pairs          23691
 maxK2 (contraction) of shell pair          169
 max number of K2 of shell pair               1
 max number of CS2 of shell pair           1510
 max number of PS2 of shell pair           2197
 mem total for path MDJ                  691724
 -------------------------------------------------------
 Smallest overlap matrix eigenvalue = 2.02E-05

 Q-Chem warning in module stvman/mkSTV.C, line 306:

 Overlap eigenvalue is smaller than square root of threshold
 Use THRESH >= 12 to get rid of this warning


 Scale SEOQF with 1.000000e-02/1.000000e-01/1.000000e-01

 Standard Electronic Orientation quadrupole field applied
 Nucleus-field energy     =     0.0000000023 hartrees
 Guess from superposition of atomic densities
 Warning:  Energy on first SCF cycle will be non-variational
 SAD guess density has 52.000000 electrons

 -----------------------------------------------------------------------
  General SCF calculation program by
  Eric Jon Sundstrom, Paul Horn, Yuezhi Mao, Dmitri Zuev, Alec White,
  David Stuck, Shaama M.S., Shane Yost, Joonho Lee, David Small,
  Daniel Levine, Susi Lehtola, Hugh Burton, Evgeny Epifanovsky
 -----------------------------------------------------------------------
 Hartree-Fock
 using 6 threads for integral computing
 -------------------------------------------------------
 OpenMP Integral computing Module                
 Release: version 1.0, May 2013, Q-Chem Inc. Pittsburgh 
 -------------------------------------------------------
 A restricted SCF calculation will be
 performed using DIIS
 SCF converges when DIIS error is below 1.0e-05
 ---------------------------------------
  Cycle       Energy         DIIS error
 ---------------------------------------
    1    -692.8774903163      1.68e-02  
    2    -692.6273635457      1.65e-03  
    3    -692.6883406038      7.73e-04  
    4    -692.7001690472      1.94e-04  
    5    -692.7013939107      2.57e-05  
    6    -692.7014291198      6.26e-06  Convergence criterion met
 ---------------------------------------
 SCF time:   CPU 266.98s  wall 45.00s 
 SCF   energy in the final basis set =     -692.7014291198
 Total energy in the final basis set =     -692.7014291198
 
 Components of the MP2 correlation energy:
        aaaa  correlation energy =        -0.0707256301 au
        abab  correlation energy =        -0.5785025434 au
        bbbb  correlation energy =        -0.0707256301 au
        non-Brillouin singles    =        -0.0000000000 au

 Total  MP2   correlation energy =                    -0.71995380 au
        MP2         total energy =                  -693.42138292 au
 
 --------------------------------------------------------------
 
                    Orbital Energies (a.u.)
 --------------------------------------------------------------
 
 Alpha MOs
 -- Occupied --
-68.782 -68.777 -15.542 -15.538  -6.128  -6.123  -4.235  -4.235
 -4.234  -4.229  -4.229  -4.229  -1.139  -1.136  -0.723  -0.718
 -0.657  -0.656  -0.555  -0.552  -0.495  -0.490  -0.479  -0.473
 -0.408  -0.403
 -- Virtual --
  0.025   0.036   0.040   0.041   0.048   0.054   0.058   0.064
  0.067   0.069   0.073   0.075   0.079   0.086   0.096   0.097
  0.129   0.138   0.139   0.144   0.145   0.157   0.158   0.162
  0.163   0.168   0.175   0.177   0.182   0.191   0.193   0.196
  0.201   0.205   0.215   0.216   0.240   0.244   0.251   0.253
  0.260   0.261   0.263   0.269   0.282   0.287   0.298   0.301
  0.307   0.316   0.324   0.331   0.334   0.336   0.343   0.349
  0.355   0.358   0.367   0.369   0.377   0.382   0.387   0.387
  0.399   0.401   0.406   0.412   0.420   0.427   0.432   0.438
  0.443   0.458   0.464   0.469   0.474   0.487   0.494   0.503
  0.510   0.518   0.534   0.546   0.549   0.558   0.566   0.572
  0.586   0.591   0.598   0.619   0.621   0.631   0.634   0.642
  0.646   0.650   0.655   0.658   0.666   0.668   0.672   0.677
  0.685   0.687   0.696   0.713   0.714   0.726   0.738   0.747
  0.750   0.758   0.805   0.815   0.825   0.840   0.880   0.890
  0.903   0.918   0.920   0.924   0.928   0.938   0.951   0.957
  0.959   0.963   0.973   0.975   0.980   0.983   0.989   0.991
  0.995   1.004   1.030   1.035   1.040   1.057   1.061   1.076
  1.077   1.096   1.101   1.107   1.113   1.120   1.124   1.129
  1.137   1.139   1.144   1.149   1.159   1.168   1.173   1.176
  1.186   1.191   1.196   1.202   1.213   1.223   1.227   1.236
  1.243   1.247   1.275   1.280   1.295   1.296   1.299   1.310
  1.335   1.337   1.342   1.350   1.351   1.353   1.359   1.373
  1.375   1.386   1.391   1.394   1.399   1.415   1.419   1.424
  1.439   1.452   1.456   1.462   1.475   1.482   1.497   1.503
  1.522   1.525   1.534   1.539   1.542   1.549   1.563   1.565
  1.600   1.609   1.681   1.695   1.735   1.743   1.749   1.756
  1.786   1.795   1.813   1.815   1.866   1.872   1.908   1.921
  1.937   1.944   1.961   1.972   2.008   2.010   2.017   2.028
  2.086   2.093   2.101   2.113   2.118   2.122   2.161   2.172
  2.192   2.202   2.208   2.210   2.229   2.233   2.240   2.244
  2.290   2.303   2.308   2.320   2.363   2.384   2.391   2.425
  2.449   2.453   2.476   2.488   2.495   2.513   2.676   2.701
  2.891   2.893   3.115   3.120   3.126   3.142   3.329   3.342
  3.534   3.568   3.667   3.674   3.676   3.684   3.728   3.743
  3.749   3.761   3.954   3.967   3.980   3.986   3.994   4.002
  4.008   4.010   4.081   4.086   4.094   4.106   4.118   4.122
  4.123   4.127   4.149   4.154   4.173   4.176   4.179   4.189
  4.222   4.229   4.237   4.241   4.255   4.269   4.281   4.293
  4.300   4.307   4.347   4.350   4.372   4.388   4.446   4.462
  4.469   4.474   4.496   4.498   4.501   4.513   4.541   4.547
  4.550   4.554   4.580   4.586   4.625   4.634   4.658   4.662
  4.718   4.722   4.735   4.755   4.768   4.776   4.796   4.800
  4.807   4.811   4.829   4.839   4.852   4.859   4.944   4.952
  4.964   4.982   5.057   5.066   5.106   5.114   5.126   5.133
  5.144   5.165   5.190   5.207   5.295   5.303   5.309   5.322
  5.403   5.409   5.526   5.531   5.558   5.567   5.862   5.891
  5.936   5.971   6.041   6.045   6.152   6.178   6.188   6.202
  6.478   6.488   6.610   6.620   6.713   6.741   7.741   7.757
  8.667   8.715  16.231  16.384
 --------------------------------------------------------------
 
          Ground-State Mulliken Net Atomic Charges

     Atom                 Charge (a.u.)
  ----------------------------------------
      1 Si                    1.051776
      2 H                    -0.321084
      3 H                    -0.286260
      4 H                    -0.274804
      5 N                    -0.418887
      6 H                     0.120201
      7 H                     0.130563
      8 Si                    1.113263
      9 H                    -0.343166
     10 H                    -0.300814
     11 H                    -0.298130
     12 N                    -0.459152
     13 H                     0.107608
     14 H                     0.178882
  ----------------------------------------
  Sum of atomic charges =    -0.000004

 -----------------------------------------------------------------
                    Cartesian Multipole Moments
 -----------------------------------------------------------------
    Charge (ESU x 10^10)
                -0.0000
    Dipole Moment (Debye)
         X      -0.8279      Y       0.2494      Z      -0.2797
       Tot       0.9088
    Quadrupole Moments (Debye-Ang)
        XX     -49.5062     XY       1.7244     YY     -43.0342
        XZ       5.3655     YZ       1.9896     ZZ     -43.8934
    Octopole Moments (Debye-Ang^2)
       XXX      -0.3390    XXY      11.4403    XYY       1.9649
       YYY       7.4604    XXZ       5.2414    XYZ      10.3820
       YYZ      -0.5910    XZZ      -7.4082    YZZ       5.1081
       ZZZ      -8.1026
    Hexadecapole Moments (Debye-Ang^3)
      XXXX   -3713.3224   XXXY      17.1774   XXYY    -603.8308
      XYYY      30.6955   YYYY    -159.4066   XXXZ      34.7709
      XXYZ      18.0274   XYYZ      24.9471   YYYZ       9.3393
      XXZZ    -608.7499   XYZZ       4.8396   YYZZ     -50.3837
      XZZZ      18.6042   YZZZ       1.4100   ZZZZ    -131.3151
 -----------------------------------------------------------------
Archival summary:
1\1\mm2.localdomain\SP\MP2\BasisUnspecified\i2210\xuedong\WedJul319:40:442019WedJul319:40:442019\0\\#,MP2,BasisUnspecified,\\0,1\Si\H,1,1.47953\H,1,1.48179,2,109.932\H,1,1.48729,2,106.946,3,115.775,0\N,1,1.72649,2,109.04,3,-117.186,0\H,5,1.0071,1,118.779,2,-57.0413,0\H,5,1.01319,1,116.327,2,166.451,0\H,7,4.48408,5,156.928,1,-42.1607,0\N,8,1.01017,7,85.8316,5,-159.696,0\H,9,1.00982,8,108.439,7,89.2952,0\Si,9,1.74271,8,116.957,7,-135.206,0\H,11,1.47694,9,107.209,8,53.0464,0\H,11,1.47747,9,107.397,8,172.127,0\H,11,1.48385,9,115.462,8,-67.4843,0\\HF=-692.701429\MP2=-693.421383\\@

 Total job time:  270.46s(wall), 1599.51s(cpu) 
 Wed Jul  3 19:40:44 2019

        *************************************************************
        *                                                           *
        *  Thank you very much for using Q-Chem.  Have a nice day.  *
        *                                                           *
        *************************************************************



Running Job 2 of 3 ../qm_inp/SiH3NH2_SiH3NH2_con2.200.qcinp
qchem ../qm_inp/SiH3NH2_SiH3NH2_con2.200.qcinp_35069.1 /scratch/xuedong/qchem35069/ 1
/home/qwang/software/qchem5.1.2/exe/qcprog.exe_s ../qm_inp/SiH3NH2_SiH3NH2_con2.200.qcinp_35069.1 /scratch/xuedong/qchem35069/
Check license passed

                  Welcome to Q-Chem
     A Quantum Leap Into The Future Of Chemistry


 Q-Chem 5.1, Q-Chem, Inc., Pleasanton, CA (2018)

 Yihan Shao,  Zhengting Gan,  E. Epifanovsky,  A. T. B. Gilbert,  M. Wormit,  
 J. Kussmann,  A. W. Lange,  A. Behn,  Jia Deng,  Xintian Feng,  D. Ghosh,  
 M. Goldey,  P. R. Horn,  L. D. Jacobson,  I. Kaliman,  T. Kus,  A. Landau,  
 Jie Liu,  E. I. Proynov,  R. M. Richard,  R. P. Steele,  E. J. Sundstrom,  
 H. L. Woodcock III,  P. M. Zimmerman,  D. Zuev,  B. Albrecht,  E. Alguire,  
 S. A. Baeppler,  D. Barton,  Z. Benda,  Y. A. Bernard,  E. J. Berquist,  
 K. B. Bravaya,  H. Burton,  D. Casanova,  Chun-Min Chang,  Yunqing Chen,  
 A. Chien,  K. D. Closser,  M. P. Coons,  S. Coriani,  S. Dasgupta,  
 A. L. Dempwolff,  M. Diedenhofen,  Hainam Do,  R. G. Edgar,  Po-Tung Fang,  
 S. Faraji,  S. Fatehi,  Qingguo Feng,  K. D. Fenk,  J. Fosso-Tande,  
 J. Gayvert,  Qinghui Ge,  A. Ghysels,  G. Gidofalvi,  J. Gomes,  
 J. Gonthier,  A. Gunina,  D. Hait,  M. W. D. Hanson-Heine,  
 P. H. P. Harbach,  A. W. Hauser,  J. E. Herr,  E. G. Hohenstein,  
 Z. C. Holden,  Kerwin Hui,  B. C. Huynh,  T.-C. Jagau,  Hyunjun Ji,  
 B. Kaduk,  K. Khistyaev,  Jaehoon Kim,  P. Klunzinger,  K. Koh,  
 D. Kosenkov,  L. Koulias,  T. Kowalczyk,  C. M. Krauter,  A. Kunitsa,  
 Ka Un Lao,  A. Laurent,  K. V. Lawler,  Joonho Lee,  D. Lefrancois,  
 S. Lehtola,  D. S. Levine,  Yi-Pei Li,  You-Sheng Lin,  Fenglai Liu,  
 E. Livshits,  A. Luenser,  P. Manohar,  E. Mansoor,  S. F. Manzer,  
 Shan-Ping Mao,  Yuezhi Mao,  N. Mardirossian,  A. V. Marenich,  
 T. Markovich,  L. A. Martinez-Martinez,  S. A. Maurer,  N. J. Mayhall,  
 S. C. McKenzie,  J.-M. Mewes,  A. F. Morrison,  J. W. Mullinax,  K. Nanda,  
 T. S. Nguyen-Beck,  R. Olivares-Amaya,  J. A. Parkhill,  T. M. Perrine,  
 F. Plasser,  P. Pokhilko,  S. Prager,  A. Prociuk,  E. Ramos,  D. R. Rehn,  
 F. Rob,  M. Schneider,  N. Sergueev,  S. M. Sharada,  S. Sharma,  
 D. W. Small,  T. Stauch,  T. Stein,  Yu-Chuan Su,  A. J. W. Thom,  
 A. Tkatchenko,  T. Tsuchimochi,  N. M. Tubman,  L. Vogt,  M. L. Vidal,  
 O. Vydrov,  M. A. Watson,  J. Wenzel,  M. de Wergifosse,  T. A. Wesolowski,  
 A. White,  J. Witte,  A. Yamada,  Jun Yang,  K. Yao,  S. Yeganeh,  
 S. R. Yost,  Zhi-Qiang You,  A. Zech,  Igor Ying Zhang,  Xing Zhang,  
 Yan Zhao,  Ying Zhu,  B. R. Brooks,  G. K. L. Chan,  C. J. Cramer,  
 M. S. Gordon,  W. J. Hehre,  A. Klamt,  M. W. Schmidt,  C. D. Sherrill,  
 D. G. Truhlar,  A. Aspuru-Guzik,  R. Baer,  A. T. Bell,  N. A. Besley,  
 Jeng-Da Chai,  A. E. DePrince, III,  R. A. DiStasio Jr.,  A. Dreuw,  
 B. D. Dunietz,  T. R. Furlani,  Chao-Ping Hsu,  Yousung Jung,  Jing Kong,  
 D. S. Lambrecht,  WanZhen Liang,  C. Ochsenfeld,  V. A. Rassolov,  
 L. V. Slipchenko,  J. E. Subotnik,  T. Van Voorhis,  J. M. Herbert,  
 A. I. Krylov,  P. M. W. Gill,  M. Head-Gordon

 Contributors to earlier versions of Q-Chem not listed above: 
 R. D. Adamson,  B. Austin,  J. Baker,  G. J. O. Beran,  K. Brandhorst,  
 S. T. Brown,  E. F. C. Byrd,  A. K. Chakraborty,  C.-L. Cheng,  
 Siu Hung Chien,  D. M. Chipman,  D. L. Crittenden,  H. Dachsel,  
 R. J. Doerksen,  A. D. Dutoi,  L. Fusti-Molnar,  W. A. Goddard III,  
 A. Golubeva-Zadorozhnaya,  S. R. Gwaltney,  G. Hawkins,  A. Heyden,  
 S. Hirata,  G. Kedziora,  F. J. Keil,  C. Kelley,  Jihan Kim,  R. A. King,  
 R. Z. Khaliullin,  P. P. Korambath,  W. Kurlancheek,  A. M. Lee,  M. S. Lee,  
 S. V. Levchenko,  Ching Yeh Lin,  D. Liotard,  R. C. Lochan,  I. Lotan,  
 P. E. Maslen,  N. Nair,  D. P. O'Neill,  D. Neuhauser,  E. Neuscamman,  
 C. M. Oana,  R. Olson,  B. Peters,  R. Peverati,  P. A. Pieniazek,  
 Y. M. Rhee,  J. Ritchie,  M. A. Rohrdanz,  E. Rosta,  N. J. Russ,  
 H. F. Schaefer III,  N. E. Schultz,  N. Shenvi,  A. C. Simmonett,  A. Sodt,  
 D. Stuck,  K. S. Thanthiriwatte,  V. Vanovschi,  Tao Wang,  A. Warshel,  
 C. F. Williams,  Q. Wu,  X. Xu,  W. Zhang

 Please cite Q-Chem as follows:
 Y. Shao et al., Mol. Phys. 113, 184-215 (2015)
 DOI: 10.1080/00268976.2014.952696

 Q-Chem 5.1.2 for Intel X86 EM64T Linux

 Parts of Q-Chem use Armadillo 8.300.2 (Tropical Shenanigans).
 http://arma.sourceforge.net/

 Q-Chem begins on Wed Jul  3 19:40:44 2019  

Host: 
0

     Scratch files written to /scratch/xuedong/qchem35069//
 Dec218 |scratch|qcdevops|jenkins|workspace|build_RNUM 6581   
Processing $rem in /home/qwang/software/qchem5.1.2/config/preferences.
 MEM_TOTAL  4000 
Core orbitals will be frozen
Input Ideriv = 1
Curr. Ideriv = -1
Max.  Ideriv = 1

Checking the input file for inconsistencies... 	...done.

--------------------------------------------------------------
User input:
--------------------------------------------------------------

$molecule
0 1
Si     2.701607000     0.125690888    -0.270400178
H     3.881940247    -0.764955877    -0.394351651
H     3.074781685     1.254572160     0.606696963
H     2.345683281     0.606987292    -1.620593772
N     1.274958878    -0.611037074     0.407064268
H     1.327705539    -0.932294968     1.362965471
H     0.821958737    -1.325136373    -0.145472211
@Si   -5.021940330     0.144746558    -0.154365318
@H    -5.065964911     0.843305361    -1.466653904
@H    -6.411694795     0.086071116     0.349760415
@H    -4.519318188    -1.225417871    -0.410734054
@N    -4.010813504     0.838725929     1.060870051
@H    -4.236167491     1.754466253     1.414265096
@H    -3.011721886     0.740207561     0.924229251
$end

$rem
BASIS = aug-cc-pVTZ
JOB_TYPE  =  SP
METHOD  =  MP2
SCF_MAX_CYCLES  =  200
$end

--------------------------------------------------------------
 ----------------------------------------------------------------
             Standard Nuclear Orientation (Angstroms)
    I     Atom           X                Y                Z
 ----------------------------------------------------------------
    1      Si      2.7016070000     0.1256908880    -0.2704001780
    2      H       3.8819402470    -0.7649558770    -0.3943516510
    3      H       3.0747816850     1.2545721600     0.6066969630
    4      H       2.3456832810     0.6069872920    -1.6205937720
    5      N       1.2749588780    -0.6110370740     0.4070642680
    6      H       1.3277055390    -0.9322949680     1.3629654710
    7      H       0.8219587370    -1.3251363730    -0.1454722110
    8      GH     -5.0219403300     0.1447465580    -0.1543653180
    9      GH     -5.0659649110     0.8433053610    -1.4666539040
   10      GH     -6.4116947950     0.0860711160     0.3497604150
   11      GH     -4.5193181880    -1.2254178710    -0.4107340540
   12      GH     -4.0108135040     0.8387259290     1.0608700510
   13      GH     -4.2361674910     1.7544662530     1.4142650960
   14      GH     -3.0117218860     0.7402075610     0.9242292510
 ----------------------------------------------------------------
 Nuclear Repulsion Energy =    64.5403355067 hartrees
 There are       13 alpha and       13 beta electrons
 Requested basis set is aug-cc-pVTZ
 There are 150 shells and 422 basis functions

 Total QAlloc Memory Limit   4000 MB
 Mega-Array Size       188 MB
 MEM_STATIC part       192 MB

                       Distance Matrix (Angstroms)
             Si(  1)   H (  2)   H (  3)   H (  4)   N (  5)   H (  6)
   H (  2)  1.483847
   H (  3)  1.477475  2.394180
   H (  4)  1.476940  2.397078  2.431414
   N (  5)  1.742714  2.731723  2.599945  2.596427
   H (  6)  2.382189  3.104880  2.899415  3.508175  1.009820
   H (  7)  2.377727  3.120774  3.506546  2.868941  1.010170  1.638746
   GH(  8)  7.724442  8.953449  8.207791  7.526312  6.366895  6.616669
   GH(  9)  7.891842  9.154307  8.410688  7.417012  6.770026  7.213773
   GH( 10)  9.134464 10.355524  9.561624  8.991403  7.718412  7.871593
   GH( 11)  7.347581  8.413884  8.053314  7.207615  5.883868  6.117158
   GH( 12)  6.880210  8.184438  7.112303  6.902826  5.519843  5.632722
   GH( 13)  7.322822  8.690354  7.372383  7.338108  6.081330  6.178835
   GH( 14)  5.869148  7.178214  6.116447  5.932593  4.524263  4.671229
             H (  7)   GH(  8)   GH(  9)   GH( 10)   GH( 11)   GH( 12)
   GH(  8)  6.025927
   GH(  9)  6.412122  1.487287
   GH( 10)  7.386644  1.479528  2.384062
   GH( 11)  5.348789  1.481791  2.386086  2.424757
   GH( 12)  5.430769  1.726494  2.738931  2.614650  2.585515
   GH( 13)  6.123837  2.381016  3.133444  2.941026  3.505782  1.007101
   GH( 14)  4.484085  2.357736  3.153865  3.509662  2.814011  1.013193
             GH( 13)
   GH( 14)  1.663768
 
 A cutoff of  1.0D-08 yielded   8043 shell pairs
 There are     59299 function pairs (     75177 Cartesian)
 
 -------------------------------------------------------
 OpenMP Integral Computing Module                       
 Release: version 1.0, May 2013, Q-Chem Inc. Pittsburgh 
 -------------------------------------------------------
 Integral Job Info:
 Integral job number is                      11
 Integral operator is                         1
 short-range coefficients                     0
 long-range coefficients              100000000
 Omega coefficients                           0
 if combine SR and LR in K                    0
 Integral screening is                        0
 Integral computing path is                   2
 max size of driver memory is            800000
 size of driver memory is                776718
 size of scratch memory is             29531563
 max col of scratch BK array              10000
 max len of scratch array in speh3          662
 max len of scratch index in speh4           32
 max int batch size is                      520
 min int batch size is                       52
 fixed nKL is                                31
 max L of basis functions is                  3
 order of int derivative is                   0
 number of shells is                        150
 number of basis is                         478
 number of cartesian basis is               478
 number of contracted shell pairs          8043
 number of primitive shell pairs          23691
 maxK2 (contraction) of shell pair          169
 max number of K2 of shell pair               1
 max number of CS2 of shell pair           1510
 max number of PS2 of shell pair           2197
 mem total for path MDJ                  691724
 -------------------------------------------------------
 Smallest overlap matrix eigenvalue = 2.02E-05

 Q-Chem warning in module stvman/mkSTV.C, line 306:

 Overlap eigenvalue is smaller than square root of threshold
 Use THRESH >= 12 to get rid of this warning


 Scale SEOQF with 1.000000e-02/1.000000e-01/1.000000e-01

 Standard Electronic Orientation quadrupole field applied
 Nucleus-field energy     =     0.0000000003 hartrees
 Guess from superposition of atomic densities
 Warning:  Energy on first SCF cycle will be non-variational
 SAD guess density has 26.000000 electrons

 -----------------------------------------------------------------------
  General SCF calculation program by
  Eric Jon Sundstrom, Paul Horn, Yuezhi Mao, Dmitri Zuev, Alec White,
  David Stuck, Shaama M.S., Shane Yost, Joonho Lee, David Small,
  Daniel Levine, Susi Lehtola, Hugh Burton, Evgeny Epifanovsky
 -----------------------------------------------------------------------
 Hartree-Fock
 using 6 threads for integral computing
 -------------------------------------------------------
 OpenMP Integral computing Module                
 Release: version 1.0, May 2013, Q-Chem Inc. Pittsburgh 
 -------------------------------------------------------
 A restricted SCF calculation will be
 performed using DIIS
 SCF converges when DIIS error is below 1.0e-05
 ---------------------------------------
  Cycle       Energy         DIIS error
 ---------------------------------------
    1    -346.4319605996      1.19e-02  
    2    -346.3127877192      1.18e-03  
    3    -346.3436278941      5.55e-04  
    4    -346.3497262442      1.37e-04  
    5    -346.3503412523      1.85e-05  
    6    -346.3503593876      4.48e-06  Convergence criterion met
 ---------------------------------------
 SCF time:   CPU 236.88s  wall 39.00s 
 SCF   energy in the final basis set =     -346.3503593876
 Total energy in the final basis set =     -346.3503593876
 
 Components of the MP2 correlation energy:
        aaaa  correlation energy =        -0.0353499214 au
        abab  correlation energy =        -0.2893280647 au
        bbbb  correlation energy =        -0.0353499214 au
        non-Brillouin singles    =        -0.0000000000 au

 Total  MP2   correlation energy =                    -0.36002791 au
        MP2         total energy =                  -346.71038730 au
 
 --------------------------------------------------------------
 
                    Orbital Energies (a.u.)
 --------------------------------------------------------------
 
 Alpha MOs
 -- Occupied --
-68.779 -15.538  -6.126  -4.232  -4.232  -4.232  -1.135  -0.720
 -0.652  -0.552  -0.492  -0.477  -0.405
 -- Virtual --
  0.020   0.032   0.040   0.041   0.047   0.052   0.054   0.064
  0.064   0.069   0.072   0.075   0.079   0.085   0.087   0.096
  0.107   0.132   0.137   0.141   0.146   0.150   0.159   0.164
  0.168   0.171   0.175   0.182   0.188   0.189   0.196   0.197
  0.204   0.209   0.212   0.217   0.231   0.233   0.240   0.251
  0.257   0.257   0.270   0.281   0.293   0.301   0.302   0.306
  0.315   0.324   0.336   0.338   0.339   0.346   0.351   0.362
  0.363   0.369   0.374   0.379   0.379   0.386   0.395   0.398
  0.402   0.404   0.412   0.420   0.423   0.430   0.438   0.443
  0.448   0.459   0.464   0.468   0.475   0.491   0.496   0.500
  0.502   0.514   0.532   0.547   0.550   0.568   0.582   0.593
  0.609   0.613   0.620   0.626   0.637   0.647   0.652   0.658
  0.666   0.670   0.672   0.678   0.686   0.700   0.704   0.710
  0.718   0.722   0.731   0.753   0.757   0.765   0.779   0.781
  0.807   0.813   0.817   0.822   0.840   0.843   0.858   0.888
  0.899   0.919   0.923   0.927   0.930   0.938   0.959   0.964
  0.965   0.973   0.977   0.990   0.994   1.000   1.015   1.032
  1.034   1.037   1.044   1.056   1.063   1.077   1.082   1.088
  1.107   1.113   1.121   1.124   1.126   1.128   1.138   1.142
  1.153   1.160   1.161   1.169   1.173   1.185   1.185   1.193
  1.200   1.204   1.214   1.222   1.238   1.240   1.259   1.270
  1.282   1.288   1.294   1.296   1.301   1.314   1.328   1.340
  1.345   1.354   1.357   1.369   1.377   1.381   1.391   1.400
  1.413   1.422   1.439   1.445   1.455   1.465   1.478   1.492
  1.498   1.516   1.522   1.534   1.540   1.542   1.547   1.557
  1.565   1.598   1.611   1.624   1.663   1.676   1.695   1.708
  1.725   1.739   1.743   1.754   1.758   1.769   1.796   1.799
  1.825   1.870   1.877   1.880   1.919   1.931   1.940   1.963
  1.971   1.982   1.996   2.009   2.016   2.030   2.047   2.089
  2.100   2.108   2.122   2.132   2.141   2.181   2.197   2.215
  2.233   2.244   2.258   2.285   2.293   2.302   2.314   2.347
  2.370   2.389   2.397   2.421   2.452   2.478   2.489   2.494
  2.507   2.568   2.627   2.680   2.696   2.811   2.824   2.840
  2.842   2.895   2.962   2.990   3.070   3.105   3.116   3.122
  3.127   3.273   3.333   3.532   3.537   3.670   3.684   3.744
  3.746   3.755   3.774   3.970   3.982   3.997   4.013   4.043
  4.084   4.097   4.121   4.126   4.152   4.177   4.182   4.213
  4.228   4.236   4.239   4.251   4.258   4.272   4.284   4.303
  4.350   4.352   4.358   4.375   4.391   4.402   4.450   4.456
  4.464   4.465   4.474   4.499   4.501   4.531   4.548   4.550
  4.553   4.575   4.589   4.607   4.617   4.628   4.633   4.654
  4.659   4.665   4.706   4.723   4.738   4.770   4.798   4.806
  4.815   4.831   4.857   4.940   4.947   4.951   4.966   5.024
  5.032   5.061   5.083   5.094   5.109   5.127   5.136   5.146
  5.165   5.184   5.204   5.212   5.265   5.279   5.299   5.312
  5.324   5.348   5.377   5.412   5.415   5.458   5.526   5.535
  5.570   5.731   5.747   5.865   5.937   5.975   6.004   6.039
  6.050   6.096   6.155   6.179   6.187   6.192   6.334   6.482
  6.623   6.633   6.641   6.717   6.847   7.424   7.491   7.512
  7.601   7.760   7.826   8.112   8.673   9.257   9.325  10.079
 10.977  11.974  14.588  16.238  20.320  20.398  20.905  57.064
106.964
 --------------------------------------------------------------
 
          Ground-State Mulliken Net Atomic Charges

     Atom                 Charge (a.u.)
  ----------------------------------------
      1 Si                    1.053607
      2 H                    -0.322862
      3 H                    -0.286452
      4 H                    -0.275246
      5 N                    -0.418903
      6 H                     0.119846
      7 H                     0.130457
      8 GH                   -0.000105
      9 GH                   -0.000063
     10 GH                   -0.000040
     11 GH                    0.000031
     12 GH                   -0.000093
     13 GH                   -0.000111
     14 GH                   -0.000069
  ----------------------------------------
  Sum of atomic charges =    -0.000003

 -----------------------------------------------------------------
                    Cartesian Multipole Moments
 -----------------------------------------------------------------
    Charge (ESU x 10^10)
                -0.0000
    Dipole Moment (Debye)
         X      -0.0529      Y      -1.1949      Z       0.3280
       Tot       1.2402
    Quadrupole Moments (Debye-Ang)
        XX     -23.9460     XY      -0.3735     YY     -21.0353
        XZ       1.0862     YZ      -0.6418     ZZ     -20.8053
    Octopole Moments (Debye-Ang^2)
       XXX    -163.8799    XXY       4.8139    XYY     -52.3931
       YYY       4.0522    XXZ       3.5225    XYZ      -2.0131
       YYZ       1.4057    XZZ     -49.3858    YZZ      -0.9455
       ZZZ      10.0135
    Hexadecapole Moments (Debye-Ang^3)
      XXXX    -867.3345   XXXY      15.0562   XXYY    -155.1293
      XYYY      -3.1160   YYYY     -67.5090   XXXZ      27.9157
      XXYZ      -4.6126   XYYZ       7.6304   YYYZ       7.1680
      XXZZ    -145.3381   XYZZ      -5.3849   YYZZ     -20.7862
      XZZZ      34.5230   YZZZ       4.6586   ZZZZ     -63.4385
 -----------------------------------------------------------------
Archival summary:
1\1\mm2.localdomain\SP\MP2\BasisUnspecified\i115h7\xuedong\WedJul319:43:182019WedJul319:43:182019\0\\#,MP2,BasisUnspecified,\\0,1\Si\H,1,1.47694\H,1,1.47747,2,110.768\H,1,1.48385,2,108.115,3,-118.024,0\N,1,1.74271,2,107.209,3,116.886,0\H,5,1.00982,1,117.369,2,-175.436,0\H,5,1.01017,1,116.957,2,53.0464,0\Gh,7,4.48408,5,85.8316,1,-135.206,0\Gh,8,1.01319,7,156.928,5,-159.696,0\Gh,9,1.0071,8,110.879,7,178.053,0\Gh,9,1.72649,8,116.327,7,-42.1607,0\Gh,11,1.47953,9,109.04,8,166.451,0\Gh,11,1.48179,9,107.146,8,47.5128,0\Gh,11,1.48729,9,116.718,8,-72.2908,0\\HF=-346.350359\MP2=-346.710387\\@

 Total job time:  153.59s(wall), 913.21s(cpu) 
 Wed Jul  3 19:43:18 2019

        *************************************************************
        *                                                           *
        *  Thank you very much for using Q-Chem.  Have a nice day.  *
        *                                                           *
        *************************************************************



Running Job 3 of 3 ../qm_inp/SiH3NH2_SiH3NH2_con2.200.qcinp
qchem ../qm_inp/SiH3NH2_SiH3NH2_con2.200.qcinp_35069.2 /scratch/xuedong/qchem35069/ 1
/home/qwang/software/qchem5.1.2/exe/qcprog.exe_s ../qm_inp/SiH3NH2_SiH3NH2_con2.200.qcinp_35069.2 /scratch/xuedong/qchem35069/
Check license passed

                  Welcome to Q-Chem
     A Quantum Leap Into The Future Of Chemistry


 Q-Chem 5.1, Q-Chem, Inc., Pleasanton, CA (2018)

 Yihan Shao,  Zhengting Gan,  E. Epifanovsky,  A. T. B. Gilbert,  M. Wormit,  
 J. Kussmann,  A. W. Lange,  A. Behn,  Jia Deng,  Xintian Feng,  D. Ghosh,  
 M. Goldey,  P. R. Horn,  L. D. Jacobson,  I. Kaliman,  T. Kus,  A. Landau,  
 Jie Liu,  E. I. Proynov,  R. M. Richard,  R. P. Steele,  E. J. Sundstrom,  
 H. L. Woodcock III,  P. M. Zimmerman,  D. Zuev,  B. Albrecht,  E. Alguire,  
 S. A. Baeppler,  D. Barton,  Z. Benda,  Y. A. Bernard,  E. J. Berquist,  
 K. B. Bravaya,  H. Burton,  D. Casanova,  Chun-Min Chang,  Yunqing Chen,  
 A. Chien,  K. D. Closser,  M. P. Coons,  S. Coriani,  S. Dasgupta,  
 A. L. Dempwolff,  M. Diedenhofen,  Hainam Do,  R. G. Edgar,  Po-Tung Fang,  
 S. Faraji,  S. Fatehi,  Qingguo Feng,  K. D. Fenk,  J. Fosso-Tande,  
 J. Gayvert,  Qinghui Ge,  A. Ghysels,  G. Gidofalvi,  J. Gomes,  
 J. Gonthier,  A. Gunina,  D. Hait,  M. W. D. Hanson-Heine,  
 P. H. P. Harbach,  A. W. Hauser,  J. E. Herr,  E. G. Hohenstein,  
 Z. C. Holden,  Kerwin Hui,  B. C. Huynh,  T.-C. Jagau,  Hyunjun Ji,  
 B. Kaduk,  K. Khistyaev,  Jaehoon Kim,  P. Klunzinger,  K. Koh,  
 D. Kosenkov,  L. Koulias,  T. Kowalczyk,  C. M. Krauter,  A. Kunitsa,  
 Ka Un Lao,  A. Laurent,  K. V. Lawler,  Joonho Lee,  D. Lefrancois,  
 S. Lehtola,  D. S. Levine,  Yi-Pei Li,  You-Sheng Lin,  Fenglai Liu,  
 E. Livshits,  A. Luenser,  P. Manohar,  E. Mansoor,  S. F. Manzer,  
 Shan-Ping Mao,  Yuezhi Mao,  N. Mardirossian,  A. V. Marenich,  
 T. Markovich,  L. A. Martinez-Martinez,  S. A. Maurer,  N. J. Mayhall,  
 S. C. McKenzie,  J.-M. Mewes,  A. F. Morrison,  J. W. Mullinax,  K. Nanda,  
 T. S. Nguyen-Beck,  R. Olivares-Amaya,  J. A. Parkhill,  T. M. Perrine,  
 F. Plasser,  P. Pokhilko,  S. Prager,  A. Prociuk,  E. Ramos,  D. R. Rehn,  
 F. Rob,  M. Schneider,  N. Sergueev,  S. M. Sharada,  S. Sharma,  
 D. W. Small,  T. Stauch,  T. Stein,  Yu-Chuan Su,  A. J. W. Thom,  
 A. Tkatchenko,  T. Tsuchimochi,  N. M. Tubman,  L. Vogt,  M. L. Vidal,  
 O. Vydrov,  M. A. Watson,  J. Wenzel,  M. de Wergifosse,  T. A. Wesolowski,  
 A. White,  J. Witte,  A. Yamada,  Jun Yang,  K. Yao,  S. Yeganeh,  
 S. R. Yost,  Zhi-Qiang You,  A. Zech,  Igor Ying Zhang,  Xing Zhang,  
 Yan Zhao,  Ying Zhu,  B. R. Brooks,  G. K. L. Chan,  C. J. Cramer,  
 M. S. Gordon,  W. J. Hehre,  A. Klamt,  M. W. Schmidt,  C. D. Sherrill,  
 D. G. Truhlar,  A. Aspuru-Guzik,  R. Baer,  A. T. Bell,  N. A. Besley,  
 Jeng-Da Chai,  A. E. DePrince, III,  R. A. DiStasio Jr.,  A. Dreuw,  
 B. D. Dunietz,  T. R. Furlani,  Chao-Ping Hsu,  Yousung Jung,  Jing Kong,  
 D. S. Lambrecht,  WanZhen Liang,  C. Ochsenfeld,  V. A. Rassolov,  
 L. V. Slipchenko,  J. E. Subotnik,  T. Van Voorhis,  J. M. Herbert,  
 A. I. Krylov,  P. M. W. Gill,  M. Head-Gordon

 Contributors to earlier versions of Q-Chem not listed above: 
 R. D. Adamson,  B. Austin,  J. Baker,  G. J. O. Beran,  K. Brandhorst,  
 S. T. Brown,  E. F. C. Byrd,  A. K. Chakraborty,  C.-L. Cheng,  
 Siu Hung Chien,  D. M. Chipman,  D. L. Crittenden,  H. Dachsel,  
 R. J. Doerksen,  A. D. Dutoi,  L. Fusti-Molnar,  W. A. Goddard III,  
 A. Golubeva-Zadorozhnaya,  S. R. Gwaltney,  G. Hawkins,  A. Heyden,  
 S. Hirata,  G. Kedziora,  F. J. Keil,  C. Kelley,  Jihan Kim,  R. A. King,  
 R. Z. Khaliullin,  P. P. Korambath,  W. Kurlancheek,  A. M. Lee,  M. S. Lee,  
 S. V. Levchenko,  Ching Yeh Lin,  D. Liotard,  R. C. Lochan,  I. Lotan,  
 P. E. Maslen,  N. Nair,  D. P. O'Neill,  D. Neuhauser,  E. Neuscamman,  
 C. M. Oana,  R. Olson,  B. Peters,  R. Peverati,  P. A. Pieniazek,  
 Y. M. Rhee,  J. Ritchie,  M. A. Rohrdanz,  E. Rosta,  N. J. Russ,  
 H. F. Schaefer III,  N. E. Schultz,  N. Shenvi,  A. C. Simmonett,  A. Sodt,  
 D. Stuck,  K. S. Thanthiriwatte,  V. Vanovschi,  Tao Wang,  A. Warshel,  
 C. F. Williams,  Q. Wu,  X. Xu,  W. Zhang

 Please cite Q-Chem as follows:
 Y. Shao et al., Mol. Phys. 113, 184-215 (2015)
 DOI: 10.1080/00268976.2014.952696

 Q-Chem 5.1.2 for Intel X86 EM64T Linux

 Parts of Q-Chem use Armadillo 8.300.2 (Tropical Shenanigans).
 http://arma.sourceforge.net/

 Q-Chem begins on Wed Jul  3 19:43:18 2019  

Host: 
0

     Scratch files written to /scratch/xuedong/qchem35069//
 Dec218 |scratch|qcdevops|jenkins|workspace|build_RNUM 6581   
Processing $rem in /home/qwang/software/qchem5.1.2/config/preferences.
 MEM_TOTAL  4000 
Core orbitals will be frozen
Input Ideriv = 1
Curr. Ideriv = -1
Max.  Ideriv = 1

Checking the input file for inconsistencies... 	...done.

--------------------------------------------------------------
User input:
--------------------------------------------------------------

$molecule
0 1
@Si     2.701607000     0.125690888    -0.270400178
@H      3.881940247    -0.764955877    -0.394351651
@H      3.074781685     1.254572160     0.606696963
@H      2.345683281     0.606987292    -1.620593772
@N      1.274958878    -0.611037074     0.407064268
@H      1.327705539    -0.932294968     1.362965471
@H      0.821958737    -1.325136373    -0.145472211
Si    -5.021940330     0.144746558    -0.154365318
H     -5.065964911     0.843305361    -1.466653904
H     -6.411694795     0.086071116     0.349760415
H     -4.519318188    -1.225417871    -0.410734054
N     -4.010813504     0.838725929     1.060870051
H     -4.236167491     1.754466253     1.414265096
H     -3.011721886     0.740207561     0.924229251
$end

$rem
BASIS = aug-cc-pVTZ
JOB_TYPE  =  SP
METHOD  =  MP2
SCF_MAX_CYCLES  =  200
$end

--------------------------------------------------------------
 ----------------------------------------------------------------
             Standard Nuclear Orientation (Angstroms)
    I     Atom           X                Y                Z
 ----------------------------------------------------------------
    1      GH      2.7016070000     0.1256908880    -0.2704001780
    2      GH      3.8819402470    -0.7649558770    -0.3943516510
    3      GH      3.0747816850     1.2545721600     0.6066969630
    4      GH      2.3456832810     0.6069872920    -1.6205937720
    5      GH      1.2749588780    -0.6110370740     0.4070642680
    6      GH      1.3277055390    -0.9322949680     1.3629654710
    7      GH      0.8219587370    -1.3251363730    -0.1454722110
    8      Si     -5.0219403300     0.1447465580    -0.1543653180
    9      H      -5.0659649110     0.8433053610    -1.4666539040
   10      H      -6.4116947950     0.0860711160     0.3497604150
   11      H      -4.5193181880    -1.2254178710    -0.4107340540
   12      N      -4.0108135040     0.8387259290     1.0608700510
   13      H      -4.2361674910     1.7544662530     1.4142650960
   14      H      -3.0117218860     0.7402075610     0.9242292510
 ----------------------------------------------------------------
 Nuclear Repulsion Energy =    64.8016662581 hartrees
 There are       13 alpha and       13 beta electrons
 Requested basis set is aug-cc-pVTZ
 There are 150 shells and 422 basis functions

 Total QAlloc Memory Limit   4000 MB
 Mega-Array Size       188 MB
 MEM_STATIC part       192 MB

                       Distance Matrix (Angstroms)
             GH(  1)   GH(  2)   GH(  3)   GH(  4)   GH(  5)   GH(  6)
   GH(  2)  1.483847
   GH(  3)  1.477475  2.394180
   GH(  4)  1.476940  2.397078  2.431414
   GH(  5)  1.742714  2.731723  2.599945  2.596427
   GH(  6)  2.382189  3.104880  2.899415  3.508175  1.009820
   GH(  7)  2.377727  3.120774  3.506546  2.868941  1.010170  1.638746
   Si(  8)  7.724442  8.953449  8.207791  7.526312  6.366895  6.616669
   H (  9)  7.891842  9.154307  8.410688  7.417012  6.770026  7.213773
   H ( 10)  9.134464 10.355524  9.561624  8.991403  7.718412  7.871593
   H ( 11)  7.347581  8.413884  8.053314  7.207615  5.883868  6.117158
   N ( 12)  6.880210  8.184438  7.112303  6.902826  5.519843  5.632722
   H ( 13)  7.322822  8.690354  7.372383  7.338108  6.081330  6.178835
   H ( 14)  5.869148  7.178214  6.116447  5.932593  4.524263  4.671229
             GH(  7)   Si(  8)   H (  9)   H ( 10)   H ( 11)   N ( 12)
   Si(  8)  6.025927
   H (  9)  6.412122  1.487287
   H ( 10)  7.386644  1.479528  2.384062
   H ( 11)  5.348789  1.481791  2.386086  2.424757
   N ( 12)  5.430769  1.726494  2.738931  2.614650  2.585515
   H ( 13)  6.123837  2.381016  3.133444  2.941026  3.505782  1.007101
   H ( 14)  4.484085  2.357736  3.153865  3.509662  2.814011  1.013193
             H ( 13)
   H ( 14)  1.663768
 
 A cutoff of  1.0D-08 yielded   8043 shell pairs
 There are     59299 function pairs (     75177 Cartesian)
 
 -------------------------------------------------------
 OpenMP Integral Computing Module                       
 Release: version 1.0, May 2013, Q-Chem Inc. Pittsburgh 
 -------------------------------------------------------
 Integral Job Info:
 Integral job number is                      11
 Integral operator is                         1
 short-range coefficients                     0
 long-range coefficients              100000000
 Omega coefficients                           0
 if combine SR and LR in K                    0
 Integral screening is                        0
 Integral computing path is                   2
 max size of driver memory is            800000
 size of driver memory is                776718
 size of scratch memory is             29531563
 max col of scratch BK array              10000
 max len of scratch array in speh3          662
 max len of scratch index in speh4           32
 max int batch size is                      520
 min int batch size is                       52
 fixed nKL is                                31
 max L of basis functions is                  3
 order of int derivative is                   0
 number of shells is                        150
 number of basis is                         478
 number of cartesian basis is               478
 number of contracted shell pairs          8043
 number of primitive shell pairs          23691
 maxK2 (contraction) of shell pair          169
 max number of K2 of shell pair               1
 max number of CS2 of shell pair           1510
 max number of PS2 of shell pair           2197
 mem total for path MDJ                  691724
 -------------------------------------------------------
 Smallest overlap matrix eigenvalue = 2.02E-05

 Q-Chem warning in module stvman/mkSTV.C, line 306:

 Overlap eigenvalue is smaller than square root of threshold
 Use THRESH >= 12 to get rid of this warning


 Scale SEOQF with 1.000000e-02/1.000000e-01/1.000000e-01

 Standard Electronic Orientation quadrupole field applied
 Nucleus-field energy     =     0.0000000014 hartrees
 Guess from superposition of atomic densities
 Warning:  Energy on first SCF cycle will be non-variational
 SAD guess density has 26.000000 electrons

 -----------------------------------------------------------------------
  General SCF calculation program by
  Eric Jon Sundstrom, Paul Horn, Yuezhi Mao, Dmitri Zuev, Alec White,
  David Stuck, Shaama M.S., Shane Yost, Joonho Lee, David Small,
  Daniel Levine, Susi Lehtola, Hugh Burton, Evgeny Epifanovsky
 -----------------------------------------------------------------------
 Hartree-Fock
 using 6 threads for integral computing
 -------------------------------------------------------
 OpenMP Integral computing Module                
 Release: version 1.0, May 2013, Q-Chem Inc. Pittsburgh 
 -------------------------------------------------------
 A restricted SCF calculation will be
 performed using DIIS
 SCF converges when DIIS error is below 1.0e-05
 ---------------------------------------
  Cycle       Energy         DIIS error
 ---------------------------------------
    1    -346.4454936369      1.19e-02  
    2    -346.3136644668      1.17e-03  
    3    -346.3440211372      5.41e-04  
    4    -346.3498266747      1.37e-04  
    5    -346.3504344417      1.81e-05  
    6    -346.3504516311      4.38e-06  Convergence criterion met
 ---------------------------------------
 SCF time:   CPU 233.06s  wall 39.00s 
 SCF   energy in the final basis set =     -346.3504516311
 Total energy in the final basis set =     -346.3504516311
 
 Components of the MP2 correlation energy:
        aaaa  correlation energy =        -0.0353352091 au
        abab  correlation energy =        -0.2891193611 au
        bbbb  correlation energy =        -0.0353352091 au
        non-Brillouin singles    =        -0.0000000000 au

 Total  MP2   correlation energy =                    -0.35978978 au
        MP2         total energy =                  -346.71024141 au
 
 --------------------------------------------------------------
 
                    Orbital Energies (a.u.)
 --------------------------------------------------------------
 
 Alpha MOs
 -- Occupied --
-68.778 -15.540  -6.124  -4.231  -4.231  -4.230  -1.138  -0.720
 -0.660  -0.554  -0.492  -0.474  -0.405
 -- Virtual --
  0.017   0.032   0.039   0.041   0.045   0.049   0.059   0.064
  0.066   0.067   0.071   0.075   0.077   0.085   0.089   0.095
  0.101   0.127   0.138   0.142   0.143   0.146   0.147   0.164
  0.167   0.173   0.177   0.179   0.185   0.191   0.197   0.200
  0.201   0.205   0.214   0.217   0.228   0.235   0.242   0.250
  0.258   0.266   0.269   0.274   0.298   0.302   0.305   0.307
  0.311   0.321   0.324   0.332   0.340   0.342   0.345   0.350
  0.360   0.365   0.371   0.375   0.378   0.383   0.389   0.392
  0.405   0.406   0.413   0.416   0.420   0.427   0.436   0.442
  0.446   0.457   0.461   0.462   0.479   0.482   0.489   0.492
  0.504   0.535   0.542   0.548   0.554   0.569   0.587   0.595
  0.596   0.603   0.615   0.629   0.636   0.645   0.654   0.661
  0.665   0.668   0.675   0.681   0.688   0.693   0.706   0.713
  0.718   0.724   0.728   0.742   0.750   0.765   0.772   0.786
  0.794   0.803   0.819   0.824   0.829   0.838   0.839   0.888
  0.900   0.904   0.913   0.918   0.933   0.936   0.953   0.961
  0.966   0.969   0.976   0.986   0.990   0.999   1.003   1.024
  1.034   1.038   1.041   1.054   1.068   1.077   1.078   1.095
  1.099   1.104   1.114   1.118   1.133   1.133   1.136   1.150
  1.152   1.159   1.168   1.170   1.175   1.181   1.186   1.196
  1.199   1.203   1.217   1.229   1.243   1.258   1.269   1.273
  1.278   1.285   1.294   1.295   1.310   1.317   1.320   1.337
  1.345   1.349   1.351   1.358   1.379   1.385   1.391   1.393
  1.395   1.419   1.424   1.442   1.446   1.460   1.479   1.482
  1.498   1.501   1.520   1.531   1.532   1.542   1.548   1.562
  1.568   1.596   1.602   1.613   1.663   1.676   1.679   1.686
  1.707   1.737   1.739   1.742   1.751   1.754   1.785   1.810
  1.824   1.867   1.867   1.882   1.911   1.940   1.944   1.966
  1.975   1.978   1.989   2.013   2.023   2.033   2.044   2.095
  2.109   2.114   2.116   2.129   2.136   2.160   2.200   2.205
  2.231   2.242   2.250   2.287   2.297   2.307   2.313   2.342
  2.381   2.384   2.421   2.423   2.451   2.474   2.483   2.506
  2.514   2.549   2.610   2.695   2.703   2.802   2.830   2.834
  2.844   2.890   2.940   2.967   3.059   3.090   3.100   3.125
  3.142   3.237   3.342   3.517   3.567   3.673   3.679   3.725
  3.748   3.752   3.761   3.952   3.984   4.001   4.007   4.036
  4.084   4.104   4.121   4.125   4.153   4.173   4.188   4.208
  4.225   4.235   4.238   4.249   4.263   4.267   4.291   4.306
  4.345   4.354   4.360   4.385   4.387   4.391   4.450   4.455
  4.460   4.463   4.473   4.496   4.512   4.517   4.540   4.550
  4.556   4.570   4.578   4.596   4.626   4.631   4.632   4.648
  4.657   4.662   4.704   4.719   4.752   4.774   4.785   4.797
  4.804   4.838   4.853   4.934   4.946   4.951   4.978   5.019
  5.029   5.064   5.084   5.089   5.111   5.116   5.124   5.162
  5.177   5.183   5.189   5.204   5.265   5.267   5.300   5.319
  5.322   5.346   5.384   5.400   5.412   5.447   5.514   5.524
  5.556   5.700   5.711   5.888   5.933   5.939   5.974   6.039
  6.046   6.094   6.175   6.177   6.191   6.201   6.370   6.485
  6.608   6.628   6.645   6.738   6.795   7.428   7.470   7.510
  7.594   7.739   7.812   8.078   8.711   9.289   9.343  10.060
 10.948  11.890  14.536  16.378  20.334  20.380  20.883  56.804
106.957
 --------------------------------------------------------------
 
          Ground-State Mulliken Net Atomic Charges

     Atom                 Charge (a.u.)
  ----------------------------------------
      1 GH                    0.000026
      2 GH                   -0.000008
      3 GH                    0.000050
      4 GH                    0.000065
      5 GH                    0.001127
      6 GH                   -0.000172
      7 GH                   -0.000137
      8 Si                    1.113399
      9 H                    -0.342781
     10 H                    -0.299569
     11 H                    -0.296426
     12 N                    -0.458990
     13 H                     0.108308
     14 H                     0.175108
  ----------------------------------------
  Sum of atomic charges =    -0.000001

 -----------------------------------------------------------------
                    Cartesian Multipole Moments
 -----------------------------------------------------------------
    Charge (ESU x 10^10)
                -0.0000
    Dipole Moment (Debye)
         X       0.7970      Y       1.0391      Z       0.0043
       Tot       1.3095
    Quadrupole Moments (Debye-Ang)
        XX     -27.9124     XY      -4.1462     YY     -20.2984
        XZ       0.2321     YZ       2.0366     ZZ     -24.3076
    Octopole Moments (Debye-Ang^2)
       XXX     350.2105    XXY       9.5489    XYY      96.0547
       YYY     -16.9060    XXZ      -5.2702    XYZ      -9.2059
       YYZ       1.3635    XZZ     114.2678    YZZ      -6.5576
       ZZZ     -13.8740
    Hexadecapole Moments (Debye-Ang^3)
      XXXX   -3290.8625   XXXY      26.2816   XXYY    -481.3367
      XYYY      70.1406   YYYY     -71.7110   XXXZ      45.8997
      XXYZ      37.6312   XYYZ     -10.9662   YYYZ      -7.7133
      XXZZ    -566.3946   XYZZ      29.2984   YYZZ     -23.9311
      XZZZ      44.3040   YZZZ     -13.1839   ZZZZ    -108.1007
 -----------------------------------------------------------------
Archival summary:
1\1\mm2.localdomain\SP\MP2\BasisUnspecified\i115h7\xuedong\WedJul319:45:492019WedJul319:45:492019\0\\#,MP2,BasisUnspecified,\\0,1\Si\H,1,1.47953\H,1,1.48179,2,109.932\H,1,1.48729,2,106.946,3,115.775,0\N,1,1.72649,2,109.04,3,-117.186,0\H,5,1.0071,1,118.779,2,-57.0413,0\H,5,1.01319,1,116.327,2,166.451,0\Gh,7,4.48408,5,156.928,1,-42.1607,0\Gh,8,1.01017,7,85.8316,5,-159.696,0\Gh,9,1.00982,8,108.439,7,89.2952,0\Gh,9,1.74271,8,116.957,7,-135.206,0\Gh,11,1.47694,9,107.209,8,53.0464,0\Gh,11,1.47747,9,107.397,8,172.127,0\Gh,11,1.48385,9,115.462,8,-67.4843,0\\HF=-346.350452\MP2=-346.710241\\@

 Total job time:  150.99s(wall), 899.59s(cpu) 
 Wed Jul  3 19:45:49 2019

        *************************************************************
        *                                                           *
        *  Thank you very much for using Q-Chem.  Have a nice day.  *
        *                                                           *
        *************************************************************


