
Running Job 1 of 3 ../qm_inp/SiH3NH2_SiH3NH2_con3.120.qcinp
qchem ../qm_inp/SiH3NH2_SiH3NH2_con3.120.qcinp_18299.0 /scratch/xuedong/qchem18299/ 1
/home/qwang/software/qchem5.1.2/exe/qcprog.exe_s ../qm_inp/SiH3NH2_SiH3NH2_con3.120.qcinp_18299.0 /scratch/xuedong/qchem18299/
Check license passed

                  Welcome to Q-Chem
     A Quantum Leap Into The Future Of Chemistry


 Q-Chem 5.1, Q-Chem, Inc., Pleasanton, CA (2018)

 Yihan Shao,  Zhengting Gan,  E. Epifanovsky,  A. T. B. Gilbert,  M. Wormit,  
 J. Kussmann,  A. W. Lange,  A. Behn,  Jia Deng,  Xintian Feng,  D. Ghosh,  
 M. Goldey,  P. R. Horn,  L. D. Jacobson,  I. Kaliman,  T. Kus,  A. Landau,  
 Jie Liu,  E. I. Proynov,  R. M. Richard,  R. P. Steele,  E. J. Sundstrom,  
 H. L. Woodcock III,  P. M. Zimmerman,  D. Zuev,  B. Albrecht,  E. Alguire,  
 S. A. Baeppler,  D. Barton,  Z. Benda,  Y. A. Bernard,  E. J. Berquist,  
 K. B. Bravaya,  H. Burton,  D. Casanova,  Chun-Min Chang,  Yunqing Chen,  
 A. Chien,  K. D. Closser,  M. P. Coons,  S. Coriani,  S. Dasgupta,  
 A. L. Dempwolff,  M. Diedenhofen,  Hainam Do,  R. G. Edgar,  Po-Tung Fang,  
 S. Faraji,  S. Fatehi,  Qingguo Feng,  K. D. Fenk,  J. Fosso-Tande,  
 J. Gayvert,  Qinghui Ge,  A. Ghysels,  G. Gidofalvi,  J. Gomes,  
 J. Gonthier,  A. Gunina,  D. Hait,  M. W. D. Hanson-Heine,  
 P. H. P. Harbach,  A. W. Hauser,  J. E. Herr,  E. G. Hohenstein,  
 Z. C. Holden,  Kerwin Hui,  B. C. Huynh,  T.-C. Jagau,  Hyunjun Ji,  
 B. Kaduk,  K. Khistyaev,  Jaehoon Kim,  P. Klunzinger,  K. Koh,  
 D. Kosenkov,  L. Koulias,  T. Kowalczyk,  C. M. Krauter,  A. Kunitsa,  
 Ka Un Lao,  A. Laurent,  K. V. Lawler,  Joonho Lee,  D. Lefrancois,  
 S. Lehtola,  D. S. Levine,  Yi-Pei Li,  You-Sheng Lin,  Fenglai Liu,  
 E. Livshits,  A. Luenser,  P. Manohar,  E. Mansoor,  S. F. Manzer,  
 Shan-Ping Mao,  Yuezhi Mao,  N. Mardirossian,  A. V. Marenich,  
 T. Markovich,  L. A. Martinez-Martinez,  S. A. Maurer,  N. J. Mayhall,  
 S. C. McKenzie,  J.-M. Mewes,  A. F. Morrison,  J. W. Mullinax,  K. Nanda,  
 T. S. Nguyen-Beck,  R. Olivares-Amaya,  J. A. Parkhill,  T. M. Perrine,  
 F. Plasser,  P. Pokhilko,  S. Prager,  A. Prociuk,  E. Ramos,  D. R. Rehn,  
 F. Rob,  M. Schneider,  N. Sergueev,  S. M. Sharada,  S. Sharma,  
 D. W. Small,  T. Stauch,  T. Stein,  Yu-Chuan Su,  A. J. W. Thom,  
 A. Tkatchenko,  T. Tsuchimochi,  N. M. Tubman,  L. Vogt,  M. L. Vidal,  
 O. Vydrov,  M. A. Watson,  J. Wenzel,  M. de Wergifosse,  T. A. Wesolowski,  
 A. White,  J. Witte,  A. Yamada,  Jun Yang,  K. Yao,  S. Yeganeh,  
 S. R. Yost,  Zhi-Qiang You,  A. Zech,  Igor Ying Zhang,  Xing Zhang,  
 Yan Zhao,  Ying Zhu,  B. R. Brooks,  G. K. L. Chan,  C. J. Cramer,  
 M. S. Gordon,  W. J. Hehre,  A. Klamt,  M. W. Schmidt,  C. D. Sherrill,  
 D. G. Truhlar,  A. Aspuru-Guzik,  R. Baer,  A. T. Bell,  N. A. Besley,  
 Jeng-Da Chai,  A. E. DePrince, III,  R. A. DiStasio Jr.,  A. Dreuw,  
 B. D. Dunietz,  T. R. Furlani,  Chao-Ping Hsu,  Yousung Jung,  Jing Kong,  
 D. S. Lambrecht,  WanZhen Liang,  C. Ochsenfeld,  V. A. Rassolov,  
 L. V. Slipchenko,  J. E. Subotnik,  T. Van Voorhis,  J. M. Herbert,  
 A. I. Krylov,  P. M. W. Gill,  M. Head-Gordon

 Contributors to earlier versions of Q-Chem not listed above: 
 R. D. Adamson,  B. Austin,  J. Baker,  G. J. O. Beran,  K. Brandhorst,  
 S. T. Brown,  E. F. C. Byrd,  A. K. Chakraborty,  C.-L. Cheng,  
 Siu Hung Chien,  D. M. Chipman,  D. L. Crittenden,  H. Dachsel,  
 R. J. Doerksen,  A. D. Dutoi,  L. Fusti-Molnar,  W. A. Goddard III,  
 A. Golubeva-Zadorozhnaya,  S. R. Gwaltney,  G. Hawkins,  A. Heyden,  
 S. Hirata,  G. Kedziora,  F. J. Keil,  C. Kelley,  Jihan Kim,  R. A. King,  
 R. Z. Khaliullin,  P. P. Korambath,  W. Kurlancheek,  A. M. Lee,  M. S. Lee,  
 S. V. Levchenko,  Ching Yeh Lin,  D. Liotard,  R. C. Lochan,  I. Lotan,  
 P. E. Maslen,  N. Nair,  D. P. O'Neill,  D. Neuhauser,  E. Neuscamman,  
 C. M. Oana,  R. Olson,  B. Peters,  R. Peverati,  P. A. Pieniazek,  
 Y. M. Rhee,  J. Ritchie,  M. A. Rohrdanz,  E. Rosta,  N. J. Russ,  
 H. F. Schaefer III,  N. E. Schultz,  N. Shenvi,  A. C. Simmonett,  A. Sodt,  
 D. Stuck,  K. S. Thanthiriwatte,  V. Vanovschi,  Tao Wang,  A. Warshel,  
 C. F. Williams,  Q. Wu,  X. Xu,  W. Zhang

 Please cite Q-Chem as follows:
 Y. Shao et al., Mol. Phys. 113, 184-215 (2015)
 DOI: 10.1080/00268976.2014.952696

 Q-Chem 5.1.2 for Intel X86 EM64T Linux

 Parts of Q-Chem use Armadillo 8.300.2 (Tropical Shenanigans).
 http://arma.sourceforge.net/

 Q-Chem begins on Wed Jul  3 20:40:58 2019  

Host: 
0

     Scratch files written to /scratch/xuedong/qchem18299//
 Dec218 |scratch|qcdevops|jenkins|workspace|build_RNUM 6581   
Processing $rem in /home/qwang/software/qchem5.1.2/config/preferences.
 MEM_TOTAL  4000 
Core orbitals will be frozen
Input Ideriv = 1
Curr. Ideriv = -1
Max.  Ideriv = 1

Checking the input file for inconsistencies... 	...done.

--------------------------------------------------------------
User input:
--------------------------------------------------------------
$molecule
0 1
Si     1.924810978     0.221250999     0.126279543
H     1.412655312     0.307098559     1.517792385
H     1.133853934    -0.817922695    -0.568974842
H     1.726171862     1.539629336    -0.510559482
N     3.598001176    -0.193061537    -0.046238154
H     3.898337608    -1.114121400     0.229631138
H     4.290301474     0.485203856     0.228290528
Si    -2.661084382    -0.394003718    -0.223795837
H    -2.428276360    -0.836708386    -1.622075832
H    -2.236415832    -1.490414477     0.671489256
H    -1.833149247     0.810433302     0.003931476
N    -4.295071525     0.013909878     0.183142938
H    -4.977754083    -0.725802121     0.224136667
H    -4.706099896     0.829056725    -0.242931582
$end

$rem
BASIS = aug-cc-pVTZ
JOB_TYPE  =  SP
METHOD  =  MP2
SCF_MAX_CYCLES  =  200
$end

--------------------------------------------------------------
 ----------------------------------------------------------------
             Standard Nuclear Orientation (Angstroms)
    I     Atom           X                Y                Z
 ----------------------------------------------------------------
    1      Si     -2.3009549131     0.2392414512    -0.0230708470
    2      H      -1.8225827713     0.7129617930    -1.3469780760
    3      H      -1.4564109049    -0.9128588253     0.3620058243
    4      H      -2.1386428376     1.3484186876     0.9394900758
    5      N      -3.9531523290    -0.2762660429     0.0509453275
    6      H      -4.2243057418    -1.1028700813    -0.4568525657
    7      H      -4.6763904940     0.4206841525    -0.0257138208
    8      Si      2.3114277714    -0.2526769146     0.1013063407
    9      H       2.1257884027    -1.0601215380     1.3337612680
   10      H       1.9093202362    -1.0889895784    -1.0488614671
   11      H       1.4337826920     0.9329271051     0.2112475756
   12      N       3.9196393920     0.3172442460    -0.1999442292
   13      H       4.6287807963    -0.3555345176    -0.4436592393
   14      H       4.3086311651     1.0066318681     0.4232558249
 ----------------------------------------------------------------
 Molecular Point Group                 C1    NOp =  1
 Largest Abelian Subgroup              C1    NOp =  1
 Nuclear Repulsion Energy =   194.1831804813 hartrees
 There are       26 alpha and       26 beta electrons
 Requested basis set is aug-cc-pVTZ
 There are 150 shells and 422 basis functions

 Total QAlloc Memory Limit   4000 MB
 Mega-Array Size       188 MB
 MEM_STATIC part       192 MB

                       Distance Matrix (Angstroms)
             Si(  1)   H (  2)   H (  3)   H (  4)   N (  5)   H (  6)
   H (  2)  1.485255
   H (  3)  1.479484  2.387048
   H (  4)  1.477546  2.394084  2.431523
   N (  5)  1.732334  2.733512  2.595328  2.592597
   H (  6)  2.385101  3.139720  2.892728  3.508358  1.007302
   H (  7)  2.382357  3.158383  3.506698  2.869229  1.007318  1.646657
   Si(  8)  4.640208  4.485536  3.834112  4.803039  6.264827  6.614392
   H (  9)  4.808887  5.091151  3.714586  4.913440  6.262074  6.597865
   H ( 10)  4.532423  4.154877  3.653726  5.126452  6.019857  6.162145
   H ( 11)  3.805834  3.616679  3.432619  3.669495  5.523306  6.050189
   N ( 12)  6.223597  5.869020  5.543542  6.250153  7.899117  8.270826
   H ( 13)  6.967919  6.601345  6.163543  7.114393  8.596540  8.884584
   H ( 14)  6.668937  6.388408  6.076504  6.476933  8.369081  8.833776
             H (  7)   Si(  8)   H (  9)   H ( 10)   H ( 11)   N ( 12)
   Si(  8)  7.021336
   H (  9)  7.092996  1.485050
   H ( 10)  6.833559  1.477835  2.392610
   H ( 11)  6.136184  1.479191  2.389802  2.429436
   N ( 12)  8.598418  1.732601  2.732634  2.596062  2.593767
   H ( 13)  9.346839  2.382791  3.149704  2.880919  3.506715  1.007427
   H ( 14)  9.015294  2.382925  3.140906  3.509338  2.883597  1.007446
             H ( 13)
   H ( 14)  1.646066
 
 A cutoff of  1.0D-08 yielded   8818 shell pairs
 There are     65820 function pairs (     83594 Cartesian)
 
 -------------------------------------------------------
 OpenMP Integral Computing Module                       
 Release: version 1.0, May 2013, Q-Chem Inc. Pittsburgh 
 -------------------------------------------------------
 Integral Job Info:
 Integral job number is                      11
 Integral operator is                         1
 short-range coefficients                     0
 long-range coefficients              100000000
 Omega coefficients                           0
 if combine SR and LR in K                    0
 Integral screening is                        0
 Integral computing path is                   2
 max size of driver memory is            800000
 size of driver memory is                776718
 size of scratch memory is             29531563
 max col of scratch BK array              10000
 max len of scratch array in speh3          662
 max len of scratch index in speh4           32
 max int batch size is                      520
 min int batch size is                       52
 fixed nKL is                                31
 max L of basis functions is                  3
 order of int derivative is                   0
 number of shells is                        150
 number of basis is                         478
 number of cartesian basis is               478
 number of contracted shell pairs          8818
 number of primitive shell pairs          25710
 maxK2 (contraction) of shell pair          169
 max number of K2 of shell pair               1
 max number of CS2 of shell pair           1645
 max number of PS2 of shell pair           2496
 mem total for path MDJ                  714604
 -------------------------------------------------------
 Smallest overlap matrix eigenvalue = 1.57E-05

 Q-Chem warning in module stvman/mkSTV.C, line 306:

 Overlap eigenvalue is smaller than square root of threshold
 Use THRESH >= 12 to get rid of this warning


 Scale SEOQF with 1.000000e-01/1.000000e-01/1.000000e-01

 Standard Electronic Orientation quadrupole field applied
 Nucleus-field energy     =     0.0000000168 hartrees
 Guess from superposition of atomic densities
 Warning:  Energy on first SCF cycle will be non-variational
 SAD guess density has 52.000000 electrons

 -----------------------------------------------------------------------
  General SCF calculation program by
  Eric Jon Sundstrom, Paul Horn, Yuezhi Mao, Dmitri Zuev, Alec White,
  David Stuck, Shaama M.S., Shane Yost, Joonho Lee, David Small,
  Daniel Levine, Susi Lehtola, Hugh Burton, Evgeny Epifanovsky
 -----------------------------------------------------------------------
 Hartree-Fock
 using 6 threads for integral computing
 -------------------------------------------------------
 OpenMP Integral computing Module                
 Release: version 1.0, May 2013, Q-Chem Inc. Pittsburgh 
 -------------------------------------------------------
 A restricted SCF calculation will be
 performed using DIIS
 SCF converges when DIIS error is below 1.0e-05
 ---------------------------------------
  Cycle       Energy         DIIS error
 ---------------------------------------
    1    -692.8953970629      1.69e-02  
    2    -692.6266464685      1.66e-03  
    3    -692.6882682795      7.77e-04  
    4    -692.7002191831      1.94e-04  
    5    -692.7014500046      2.56e-05  
    6    -692.7014843212      6.12e-06  Convergence criterion met
 ---------------------------------------
 SCF time:   CPU 315.18s  wall 52.00s 
 SCF   energy in the final basis set =     -692.7014843212
 Total energy in the final basis set =     -692.7014843212
 
 Components of the MP2 correlation energy:
        aaaa  correlation energy =        -0.0709278187 au
        abab  correlation energy =        -0.5788953835 au
        bbbb  correlation energy =        -0.0709278187 au
        non-Brillouin singles    =        -0.0000000000 au

 Total  MP2   correlation energy =                    -0.72075102 au
        MP2         total energy =                  -693.42223534 au
 
 --------------------------------------------------------------
 
                    Orbital Energies (a.u.)
 --------------------------------------------------------------
 
 Alpha MOs
 -- Occupied --
-68.777 -68.776 -15.537 -15.536  -6.123  -6.123  -4.230  -4.229
 -4.229  -4.229  -4.229  -4.229  -1.136  -1.135  -0.721  -0.717
 -0.655  -0.655  -0.554  -0.550  -0.491  -0.490  -0.474  -0.473
 -0.402  -0.401
 -- Virtual --
  0.028   0.031   0.044   0.048   0.050   0.056   0.065   0.069
  0.069   0.073   0.077   0.087   0.089   0.094   0.104   0.116
  0.128   0.138   0.147   0.147   0.159   0.161   0.167   0.171
  0.171   0.178   0.178   0.181   0.182   0.185   0.205   0.217
  0.219   0.228   0.238   0.249   0.251   0.256   0.265   0.272
  0.274   0.278   0.283   0.293   0.301   0.304   0.310   0.314
  0.320   0.324   0.331   0.337   0.341   0.348   0.360   0.364
  0.374   0.379   0.380   0.390   0.393   0.395   0.397   0.407
  0.409   0.412   0.417   0.435   0.442   0.448   0.453   0.461
  0.467   0.468   0.469   0.481   0.491   0.505   0.509   0.516
  0.527   0.529   0.542   0.547   0.559   0.584   0.589   0.596
  0.602   0.605   0.612   0.624   0.642   0.646   0.648   0.656
  0.663   0.667   0.669   0.680   0.688   0.691   0.701   0.707
  0.711   0.723   0.735   0.742   0.747   0.755   0.761   0.768
  0.786   0.816   0.838   0.847   0.876   0.880   0.898   0.910
  0.917   0.922   0.928   0.932   0.935   0.953   0.961   0.971
  0.979   0.983   0.995   1.009   1.015   1.020   1.025   1.036
  1.040   1.042   1.046   1.048   1.058   1.065   1.077   1.083
  1.091   1.108   1.113   1.119   1.121   1.136   1.138   1.141
  1.147   1.153   1.171   1.174   1.186   1.194   1.198   1.211
  1.212   1.213   1.225   1.238   1.244   1.246   1.249   1.265
  1.272   1.292   1.295   1.307   1.321   1.330   1.341   1.346
  1.349   1.355   1.361   1.366   1.374   1.380   1.391   1.398
  1.406   1.407   1.419   1.426   1.432   1.436   1.445   1.451
  1.466   1.471   1.483   1.490   1.510   1.519   1.525   1.538
  1.549   1.563   1.572   1.577   1.584   1.600   1.610   1.617
  1.643   1.668   1.725   1.743   1.749   1.756   1.782   1.793
  1.808   1.827   1.845   1.872   1.883   1.895   1.930   1.939
  1.948   1.955   1.981   1.991   2.017   2.023   2.038   2.043
  2.100   2.105   2.111   2.120   2.157   2.169   2.181   2.199
  2.210   2.218   2.224   2.237   2.248   2.254   2.262   2.272
  2.323   2.328   2.341   2.358   2.380   2.387   2.396   2.443
  2.452   2.475   2.483   2.487   2.509   2.520   2.703   2.712
  2.891   2.900   3.137   3.144   3.164   3.184   3.407   3.418
  3.555   3.582   3.674   3.691   3.700   3.713   3.743   3.746
  3.763   3.779   3.962   3.981   4.000   4.004   4.023   4.031
  4.043   4.060   4.101   4.108   4.124   4.129   4.140   4.146
  4.153   4.164   4.168   4.177   4.187   4.197   4.210   4.227
  4.234   4.238   4.244   4.258   4.274   4.279   4.300   4.310
  4.317   4.342   4.372   4.378   4.402   4.408   4.458   4.460
  4.462   4.474   4.501   4.505   4.512   4.516   4.556   4.559
  4.561   4.569   4.592   4.598   4.634   4.648   4.686   4.699
  4.731   4.740   4.747   4.752   4.789   4.795   4.813   4.815
  4.819   4.834   4.843   4.849   4.888   4.915   4.965   4.973
  5.004   5.014   5.091   5.098   5.124   5.130   5.136   5.139
  5.169   5.175   5.211   5.216   5.310   5.313   5.330   5.334
  5.414   5.421   5.518   5.521   5.569   5.576   5.902   5.911
  5.962   5.963   6.048   6.051   6.182   6.188   6.195   6.195
  6.476   6.484   6.622   6.626   6.736   6.739   7.753   7.757
  8.757   8.970  16.290  16.307
 --------------------------------------------------------------
 
          Ground-State Mulliken Net Atomic Charges

     Atom                 Charge (a.u.)
  ----------------------------------------
      1 Si                    1.106317
      2 H                    -0.310245
      3 H                    -0.263964
      4 H                    -0.266966
      5 N                    -0.503353
      6 H                     0.129338
      7 H                     0.119954
      8 Si                    1.073650
      9 H                    -0.307701
     10 H                    -0.262741
     11 H                    -0.258205
     12 N                    -0.509207
     13 H                     0.123429
     14 H                     0.129690
  ----------------------------------------
  Sum of atomic charges =    -0.000004

 -----------------------------------------------------------------
                    Cartesian Multipole Moments
 -----------------------------------------------------------------
    Charge (ESU x 10^10)
                -0.0000
    Dipole Moment (Debye)
         X       0.1661      Y      -0.1773      Z      -0.2279
       Tot       0.3331
    Quadrupole Moments (Debye-Ang)
        XX     -29.5841     XY      -1.3310     YY     -43.3819
        XZ       6.8511     YZ       3.1769     ZZ     -47.3359
    Octopole Moments (Debye-Ang^2)
       XXX       9.2997    XXY      -0.6184    XYY      -2.9209
       YYY      -0.9824    XXZ      -8.4288    XYZ       3.1745
       YYZ      -1.3215    XZZ       1.1976    YZZ       0.0599
       ZZZ       0.0956
    Hexadecapole Moments (Debye-Ang^3)
      XXXX   -1796.9370   XXXY     -42.1435   XXYY    -356.4268
      XYYY      19.7589   YYYY    -121.6898   XXXZ     117.3897
      XXYZ      53.9836   XYYZ      11.9582   YYYZ       4.6776
      XXZZ    -427.7441   XYZZ       7.6709   YYZZ     -39.9107
      XZZZ       2.1894   YZZZ       4.8670   ZZZZ    -107.3125
 -----------------------------------------------------------------
Archival summary:
1\1\gm4.localdomain\SP\MP2\BasisUnspecified\i2210\xuedong\WedJul320:46:282019WedJul320:46:282019\0\\#,MP2,BasisUnspecified,\\0,1\Si\H,1,1.47755\H,1,1.47948,2,110.628\H,1,1.48525,2,107.811,3,-116.983,0\N,1,1.73233,2,107.477,3,117.153,0\H,5,1.0073,1,118.646,2,-172.556,0\H,5,1.00732,1,118.4,2,50.492,0\H,3,3.43262,1,92.8929,2,-58.7192,0\Si,8,1.47919,3,94.1197,1,-160.651,0\H,9,1.47783,8,110.487,3,55.8606,0\H,9,1.48505,8,107.454,3,-61.3901,0\N,9,1.7326,8,107.458,3,173.055,0\H,12,1.00743,9,118.409,8,-170.761,0\H,12,1.00745,9,118.42,8,52.7231,0\\HF=-692.701484\MP2=-693.422235\\@

 Total job time:  329.14s(wall), 1948.72s(cpu) 
 Wed Jul  3 20:46:28 2019

        *************************************************************
        *                                                           *
        *  Thank you very much for using Q-Chem.  Have a nice day.  *
        *                                                           *
        *************************************************************



Running Job 2 of 3 ../qm_inp/SiH3NH2_SiH3NH2_con3.120.qcinp
qchem ../qm_inp/SiH3NH2_SiH3NH2_con3.120.qcinp_18299.1 /scratch/xuedong/qchem18299/ 1
/home/qwang/software/qchem5.1.2/exe/qcprog.exe_s ../qm_inp/SiH3NH2_SiH3NH2_con3.120.qcinp_18299.1 /scratch/xuedong/qchem18299/
Check license passed

                  Welcome to Q-Chem
     A Quantum Leap Into The Future Of Chemistry


 Q-Chem 5.1, Q-Chem, Inc., Pleasanton, CA (2018)

 Yihan Shao,  Zhengting Gan,  E. Epifanovsky,  A. T. B. Gilbert,  M. Wormit,  
 J. Kussmann,  A. W. Lange,  A. Behn,  Jia Deng,  Xintian Feng,  D. Ghosh,  
 M. Goldey,  P. R. Horn,  L. D. Jacobson,  I. Kaliman,  T. Kus,  A. Landau,  
 Jie Liu,  E. I. Proynov,  R. M. Richard,  R. P. Steele,  E. J. Sundstrom,  
 H. L. Woodcock III,  P. M. Zimmerman,  D. Zuev,  B. Albrecht,  E. Alguire,  
 S. A. Baeppler,  D. Barton,  Z. Benda,  Y. A. Bernard,  E. J. Berquist,  
 K. B. Bravaya,  H. Burton,  D. Casanova,  Chun-Min Chang,  Yunqing Chen,  
 A. Chien,  K. D. Closser,  M. P. Coons,  S. Coriani,  S. Dasgupta,  
 A. L. Dempwolff,  M. Diedenhofen,  Hainam Do,  R. G. Edgar,  Po-Tung Fang,  
 S. Faraji,  S. Fatehi,  Qingguo Feng,  K. D. Fenk,  J. Fosso-Tande,  
 J. Gayvert,  Qinghui Ge,  A. Ghysels,  G. Gidofalvi,  J. Gomes,  
 J. Gonthier,  A. Gunina,  D. Hait,  M. W. D. Hanson-Heine,  
 P. H. P. Harbach,  A. W. Hauser,  J. E. Herr,  E. G. Hohenstein,  
 Z. C. Holden,  Kerwin Hui,  B. C. Huynh,  T.-C. Jagau,  Hyunjun Ji,  
 B. Kaduk,  K. Khistyaev,  Jaehoon Kim,  P. Klunzinger,  K. Koh,  
 D. Kosenkov,  L. Koulias,  T. Kowalczyk,  C. M. Krauter,  A. Kunitsa,  
 Ka Un Lao,  A. Laurent,  K. V. Lawler,  Joonho Lee,  D. Lefrancois,  
 S. Lehtola,  D. S. Levine,  Yi-Pei Li,  You-Sheng Lin,  Fenglai Liu,  
 E. Livshits,  A. Luenser,  P. Manohar,  E. Mansoor,  S. F. Manzer,  
 Shan-Ping Mao,  Yuezhi Mao,  N. Mardirossian,  A. V. Marenich,  
 T. Markovich,  L. A. Martinez-Martinez,  S. A. Maurer,  N. J. Mayhall,  
 S. C. McKenzie,  J.-M. Mewes,  A. F. Morrison,  J. W. Mullinax,  K. Nanda,  
 T. S. Nguyen-Beck,  R. Olivares-Amaya,  J. A. Parkhill,  T. M. Perrine,  
 F. Plasser,  P. Pokhilko,  S. Prager,  A. Prociuk,  E. Ramos,  D. R. Rehn,  
 F. Rob,  M. Schneider,  N. Sergueev,  S. M. Sharada,  S. Sharma,  
 D. W. Small,  T. Stauch,  T. Stein,  Yu-Chuan Su,  A. J. W. Thom,  
 A. Tkatchenko,  T. Tsuchimochi,  N. M. Tubman,  L. Vogt,  M. L. Vidal,  
 O. Vydrov,  M. A. Watson,  J. Wenzel,  M. de Wergifosse,  T. A. Wesolowski,  
 A. White,  J. Witte,  A. Yamada,  Jun Yang,  K. Yao,  S. Yeganeh,  
 S. R. Yost,  Zhi-Qiang You,  A. Zech,  Igor Ying Zhang,  Xing Zhang,  
 Yan Zhao,  Ying Zhu,  B. R. Brooks,  G. K. L. Chan,  C. J. Cramer,  
 M. S. Gordon,  W. J. Hehre,  A. Klamt,  M. W. Schmidt,  C. D. Sherrill,  
 D. G. Truhlar,  A. Aspuru-Guzik,  R. Baer,  A. T. Bell,  N. A. Besley,  
 Jeng-Da Chai,  A. E. DePrince, III,  R. A. DiStasio Jr.,  A. Dreuw,  
 B. D. Dunietz,  T. R. Furlani,  Chao-Ping Hsu,  Yousung Jung,  Jing Kong,  
 D. S. Lambrecht,  WanZhen Liang,  C. Ochsenfeld,  V. A. Rassolov,  
 L. V. Slipchenko,  J. E. Subotnik,  T. Van Voorhis,  J. M. Herbert,  
 A. I. Krylov,  P. M. W. Gill,  M. Head-Gordon

 Contributors to earlier versions of Q-Chem not listed above: 
 R. D. Adamson,  B. Austin,  J. Baker,  G. J. O. Beran,  K. Brandhorst,  
 S. T. Brown,  E. F. C. Byrd,  A. K. Chakraborty,  C.-L. Cheng,  
 Siu Hung Chien,  D. M. Chipman,  D. L. Crittenden,  H. Dachsel,  
 R. J. Doerksen,  A. D. Dutoi,  L. Fusti-Molnar,  W. A. Goddard III,  
 A. Golubeva-Zadorozhnaya,  S. R. Gwaltney,  G. Hawkins,  A. Heyden,  
 S. Hirata,  G. Kedziora,  F. J. Keil,  C. Kelley,  Jihan Kim,  R. A. King,  
 R. Z. Khaliullin,  P. P. Korambath,  W. Kurlancheek,  A. M. Lee,  M. S. Lee,  
 S. V. Levchenko,  Ching Yeh Lin,  D. Liotard,  R. C. Lochan,  I. Lotan,  
 P. E. Maslen,  N. Nair,  D. P. O'Neill,  D. Neuhauser,  E. Neuscamman,  
 C. M. Oana,  R. Olson,  B. Peters,  R. Peverati,  P. A. Pieniazek,  
 Y. M. Rhee,  J. Ritchie,  M. A. Rohrdanz,  E. Rosta,  N. J. Russ,  
 H. F. Schaefer III,  N. E. Schultz,  N. Shenvi,  A. C. Simmonett,  A. Sodt,  
 D. Stuck,  K. S. Thanthiriwatte,  V. Vanovschi,  Tao Wang,  A. Warshel,  
 C. F. Williams,  Q. Wu,  X. Xu,  W. Zhang

 Please cite Q-Chem as follows:
 Y. Shao et al., Mol. Phys. 113, 184-215 (2015)
 DOI: 10.1080/00268976.2014.952696

 Q-Chem 5.1.2 for Intel X86 EM64T Linux

 Parts of Q-Chem use Armadillo 8.300.2 (Tropical Shenanigans).
 http://arma.sourceforge.net/

 Q-Chem begins on Wed Jul  3 20:46:28 2019  

Host: 
0

     Scratch files written to /scratch/xuedong/qchem18299//
 Dec218 |scratch|qcdevops|jenkins|workspace|build_RNUM 6581   
Processing $rem in /home/qwang/software/qchem5.1.2/config/preferences.
 MEM_TOTAL  4000 
Core orbitals will be frozen
Input Ideriv = 1
Curr. Ideriv = -1
Max.  Ideriv = 1

Checking the input file for inconsistencies... 	...done.

--------------------------------------------------------------
User input:
--------------------------------------------------------------

$molecule
0 1
Si     1.924810978     0.221250999     0.126279543
H     1.412655312     0.307098559     1.517792385
H     1.133853934    -0.817922695    -0.568974842
H     1.726171862     1.539629336    -0.510559482
N     3.598001176    -0.193061537    -0.046238154
H     3.898337608    -1.114121400     0.229631138
H     4.290301474     0.485203856     0.228290528
@Si   -2.661084382    -0.394003718    -0.223795837
@H    -2.428276360    -0.836708386    -1.622075832
@H    -2.236415832    -1.490414477     0.671489256
@H    -1.833149247     0.810433302     0.003931476
@N    -4.295071525     0.013909878     0.183142938
@H    -4.977754083    -0.725802121     0.224136667
@H    -4.706099896     0.829056725    -0.242931582
$end

$rem
BASIS = aug-cc-pVTZ
JOB_TYPE  =  SP
METHOD  =  MP2
SCF_MAX_CYCLES  =  200
$end

--------------------------------------------------------------
 ----------------------------------------------------------------
             Standard Nuclear Orientation (Angstroms)
    I     Atom           X                Y                Z
 ----------------------------------------------------------------
    1      Si      1.9248109780     0.2212509990     0.1262795430
    2      H       1.4126553120     0.3070985590     1.5177923850
    3      H       1.1338539340    -0.8179226950    -0.5689748420
    4      H       1.7261718620     1.5396293360    -0.5105594820
    5      N       3.5980011760    -0.1930615370    -0.0462381540
    6      H       3.8983376080    -1.1141214000     0.2296311380
    7      H       4.2903014740     0.4852038560     0.2282905280
    8      GH     -2.6610843820    -0.3940037180    -0.2237958370
    9      GH     -2.4282763600    -0.8367083860    -1.6220758320
   10      GH     -2.2364158320    -1.4904144770     0.6714892560
   11      GH     -1.8331492470     0.8104333020     0.0039314760
   12      GH     -4.2950715250     0.0139098780     0.1831429380
   13      GH     -4.9777540830    -0.7258021210     0.2241366670
   14      GH     -4.7060998960     0.8290567250    -0.2429315820
 ----------------------------------------------------------------
 Nuclear Repulsion Energy =    64.7143342273 hartrees
 There are       13 alpha and       13 beta electrons
 Requested basis set is aug-cc-pVTZ
 There are 150 shells and 422 basis functions

 Total QAlloc Memory Limit   4000 MB
 Mega-Array Size       188 MB
 MEM_STATIC part       192 MB

                       Distance Matrix (Angstroms)
             Si(  1)   H (  2)   H (  3)   H (  4)   N (  5)   H (  6)
   H (  2)  1.485255
   H (  3)  1.479484  2.387048
   H (  4)  1.477546  2.394084  2.431523
   N (  5)  1.732334  2.733512  2.595328  2.592597
   H (  6)  2.385101  3.139720  2.892728  3.508358  1.007302
   H (  7)  2.382357  3.158383  3.506698  2.869229  1.007318  1.646657
   GH(  8)  4.640208  4.485536  3.834112  4.803039  6.264827  6.614392
   GH(  9)  4.808887  5.091151  3.714586  4.913440  6.262074  6.597865
   GH( 10)  4.532423  4.154877  3.653726  5.126452  6.019857  6.162145
   GH( 11)  3.805834  3.616679  3.432619  3.669495  5.523306  6.050189
   GH( 12)  6.223597  5.869020  5.543542  6.250153  7.899117  8.270826
   GH( 13)  6.967919  6.601345  6.163543  7.114393  8.596540  8.884584
   GH( 14)  6.668937  6.388408  6.076504  6.476933  8.369081  8.833776
             H (  7)   GH(  8)   GH(  9)   GH( 10)   GH( 11)   GH( 12)
   GH(  8)  7.021336
   GH(  9)  7.092996  1.485050
   GH( 10)  6.833559  1.477835  2.392610
   GH( 11)  6.136184  1.479191  2.389802  2.429436
   GH( 12)  8.598418  1.732601  2.732634  2.596062  2.593767
   GH( 13)  9.346839  2.382791  3.149704  2.880919  3.506715  1.007427
   GH( 14)  9.015294  2.382925  3.140906  3.509338  2.883597  1.007446
             GH( 13)
   GH( 14)  1.646066
 
 A cutoff of  1.0D-08 yielded   8818 shell pairs
 There are     65820 function pairs (     83594 Cartesian)
 
 -------------------------------------------------------
 OpenMP Integral Computing Module                       
 Release: version 1.0, May 2013, Q-Chem Inc. Pittsburgh 
 -------------------------------------------------------
 Integral Job Info:
 Integral job number is                      11
 Integral operator is                         1
 short-range coefficients                     0
 long-range coefficients              100000000
 Omega coefficients                           0
 if combine SR and LR in K                    0
 Integral screening is                        0
 Integral computing path is                   2
 max size of driver memory is            800000
 size of driver memory is                776718
 size of scratch memory is             29531563
 max col of scratch BK array              10000
 max len of scratch array in speh3          662
 max len of scratch index in speh4           32
 max int batch size is                      520
 min int batch size is                       52
 fixed nKL is                                31
 max L of basis functions is                  3
 order of int derivative is                   0
 number of shells is                        150
 number of basis is                         478
 number of cartesian basis is               478
 number of contracted shell pairs          8818
 number of primitive shell pairs          25710
 maxK2 (contraction) of shell pair          169
 max number of K2 of shell pair               1
 max number of CS2 of shell pair           1645
 max number of PS2 of shell pair           2496
 mem total for path MDJ                  714604
 -------------------------------------------------------
 Smallest overlap matrix eigenvalue = 1.57E-05

 Q-Chem warning in module stvman/mkSTV.C, line 306:

 Overlap eigenvalue is smaller than square root of threshold
 Use THRESH >= 12 to get rid of this warning


 Scale SEOQF with 1.000000e-01/1.000000e-01/1.000000e-01

 Standard Electronic Orientation quadrupole field applied
 Nucleus-field energy     =     0.0000000066 hartrees
 Guess from superposition of atomic densities
 Warning:  Energy on first SCF cycle will be non-variational
 SAD guess density has 26.000000 electrons

 -----------------------------------------------------------------------
  General SCF calculation program by
  Eric Jon Sundstrom, Paul Horn, Yuezhi Mao, Dmitri Zuev, Alec White,
  David Stuck, Shaama M.S., Shane Yost, Joonho Lee, David Small,
  Daniel Levine, Susi Lehtola, Hugh Burton, Evgeny Epifanovsky
 -----------------------------------------------------------------------
 Hartree-Fock
 using 6 threads for integral computing
 -------------------------------------------------------
 OpenMP Integral computing Module                
 Release: version 1.0, May 2013, Q-Chem Inc. Pittsburgh 
 -------------------------------------------------------
 A restricted SCF calculation will be
 performed using DIIS
 SCF converges when DIIS error is below 1.0e-05
 ---------------------------------------
  Cycle       Energy         DIIS error
 ---------------------------------------
    1    -346.4444446429      1.19e-02  
    2    -346.3135859620      1.17e-03  
    3    -346.3442004091      5.51e-04  
    4    -346.3501824047      1.37e-04  
    5    -346.3507909179      1.80e-05  
    6    -346.3508078727      4.33e-06  Convergence criterion met
 ---------------------------------------
 SCF time:   CPU 286.71s  wall 48.00s 
 SCF   energy in the final basis set =     -346.3508078727
 Total energy in the final basis set =     -346.3508078727
 
 Components of the MP2 correlation energy:
        aaaa  correlation energy =        -0.0353193513 au
        abab  correlation energy =        -0.2891486586 au
        bbbb  correlation energy =        -0.0353193513 au
        non-Brillouin singles    =        -0.0000000000 au

 Total  MP2   correlation energy =                    -0.35978736 au
        MP2         total energy =                  -346.71059523 au
 
 --------------------------------------------------------------
 
                    Orbital Energies (a.u.)
 --------------------------------------------------------------
 
 Alpha MOs
 -- Occupied --
-68.778 -15.538  -6.125  -4.231  -4.231  -4.231  -1.137  -0.721
 -0.657  -0.554  -0.492  -0.476  -0.403
 -- Virtual --
  0.023   0.029   0.042   0.046   0.048   0.050   0.064   0.065
  0.068   0.071   0.074   0.086   0.090   0.091   0.095   0.103
  0.117   0.129   0.140   0.147   0.150   0.158   0.163   0.165
  0.171   0.174   0.180   0.185   0.186   0.203   0.208   0.215
  0.219   0.228   0.234   0.235   0.244   0.253   0.265   0.267
  0.276   0.281   0.285   0.298   0.303   0.310   0.314   0.317
  0.324   0.330   0.338   0.340   0.355   0.360   0.363   0.369
  0.372   0.378   0.379   0.386   0.393   0.398   0.403   0.413
  0.419   0.423   0.432   0.438   0.447   0.450   0.452   0.457
  0.463   0.466   0.477   0.485   0.493   0.499   0.505   0.517
  0.526   0.537   0.548   0.564   0.579   0.593   0.605   0.611
  0.616   0.623   0.629   0.648   0.654   0.662   0.673   0.673
  0.678   0.684   0.693   0.703   0.712   0.719   0.725   0.733
  0.743   0.753   0.761   0.770   0.776   0.780   0.790   0.808
  0.811   0.830   0.836   0.848   0.858   0.870   0.891   0.909
  0.923   0.926   0.931   0.938   0.947   0.963   0.972   0.978
  0.987   1.001   1.006   1.022   1.030   1.036   1.040   1.047
  1.053   1.059   1.065   1.076   1.081   1.087   1.094   1.112
  1.118   1.128   1.131   1.137   1.140   1.152   1.163   1.167
  1.170   1.179   1.189   1.194   1.203   1.206   1.213   1.229
  1.233   1.236   1.238   1.249   1.265   1.277   1.282   1.288
  1.300   1.305   1.316   1.325   1.341   1.348   1.364   1.367
  1.380   1.386   1.393   1.402   1.404   1.419   1.424   1.436
  1.441   1.447   1.457   1.470   1.485   1.493   1.517   1.524
  1.531   1.540   1.542   1.554   1.569   1.573   1.586   1.594
  1.607   1.623   1.627   1.647   1.669   1.688   1.704   1.728
  1.746   1.749   1.762   1.766   1.791   1.808   1.822   1.832
  1.865   1.890   1.898   1.917   1.933   1.947   1.962   1.969
  1.986   2.004   2.018   2.026   2.035   2.058   2.078   2.101
  2.119   2.129   2.142   2.161   2.172   2.190   2.213   2.227
  2.250   2.263   2.274   2.311   2.329   2.341   2.345   2.369
  2.379   2.398   2.438   2.452   2.463   2.485   2.503   2.514
  2.521   2.587   2.662   2.702   2.711   2.816   2.839   2.845
  2.858   2.893   2.964   2.997   3.075   3.116   3.125   3.142
  3.177   3.248   3.411   3.538   3.569   3.685   3.701   3.748
  3.753   3.762   3.799   3.967   4.003   4.027   4.046   4.061
  4.101   4.121   4.142   4.146   4.167   4.194   4.205   4.233
  4.240   4.246   4.260   4.276   4.283   4.304   4.311   4.325
  4.356   4.374   4.387   4.399   4.404   4.437   4.458   4.463
  4.484   4.489   4.505   4.507   4.536   4.551   4.555   4.561
  4.577   4.585   4.595   4.626   4.637   4.639   4.653   4.667
  4.673   4.695   4.737   4.747   4.760   4.795   4.803   4.813
  4.819   4.844   4.896   4.944   4.967   4.975   5.005   5.025
  5.034   5.085   5.098   5.101   5.127   5.133   5.139   5.169
  5.190   5.193   5.212   5.232   5.282   5.297   5.312   5.331
  5.335   5.372   5.392   5.416   5.429   5.462   5.517   5.542
  5.572   5.743   5.750   5.906   5.960   5.970   6.008   6.048
  6.062   6.130   6.183   6.193   6.195   6.205   6.370   6.477
  6.622   6.631   6.637   6.737   6.829   7.430   7.494   7.513
  7.606   7.755   7.813   8.103   8.854   9.293   9.338  10.100
 10.948  11.967  14.823  16.299  20.345  20.430  20.935  56.846
106.987
 --------------------------------------------------------------
 
          Ground-State Mulliken Net Atomic Charges

     Atom                 Charge (a.u.)
  ----------------------------------------
      1 Si                    1.081639
      2 H                    -0.311344
      3 H                    -0.258999
      4 H                    -0.266825
      5 N                    -0.502289
      6 H                     0.129801
      7 H                     0.120274
      8 GH                    0.001664
      9 GH                    0.000812
     10 GH                   -0.000427
     11 GH                    0.005584
     12 GH                    0.000175
     13 GH                   -0.000127
     14 GH                    0.000061
  ----------------------------------------
  Sum of atomic charges =    -0.000002

 -----------------------------------------------------------------
                    Cartesian Multipole Moments
 -----------------------------------------------------------------
    Charge (ESU x 10^10)
                -0.0000
    Dipole Moment (Debye)
         X       0.8920      Y      -0.2060      Z       0.8497
       Tot       1.2490
    Quadrupole Moments (Debye-Ang)
        XX     -16.2249     XY      -0.5076     YY     -20.8213
        XZ       3.9925     YZ      -0.3966     ZZ     -24.1275
    Octopole Moments (Debye-Ang^2)
       XXX    -127.0781    XXY      -2.2524    XYY     -45.7937
       YYY      -9.9114    XXZ      15.0188    XYZ      -0.9963
       YYZ      -0.2956    XZZ     -58.0885    YZZ      -2.3344
       ZZZ      -7.6260
    Hexadecapole Moments (Debye-Ang^3)
      XXXX    -731.1813   XXXY       0.2588   XXYY    -127.8613
      XYYY     -15.2418   YYYY     -57.6105   XXXZ      59.7267
      XXYZ      -3.7118   XYYZ       1.2982   YYYZ      -1.4911
      XXZZ    -174.9126   XYZZ      -1.3249   YYZZ     -18.5383
      XZZZ     -12.2793   YZZZ      -2.2078   ZZZZ     -54.6968
 -----------------------------------------------------------------
Archival summary:
1\1\gm4.localdomain\SP\MP2\BasisUnspecified\i115h7\xuedong\WedJul320:49:312019WedJul320:49:312019\0\\#,MP2,BasisUnspecified,\\0,1\Si\H,1,1.47755\H,1,1.47948,2,110.628\H,1,1.48525,2,107.811,3,-116.983,0\N,1,1.73233,2,107.477,3,117.153,0\H,5,1.0073,1,118.646,2,-172.556,0\H,5,1.00732,1,118.4,2,50.492,0\Gh,3,3.43262,1,92.8929,2,-58.7192,0\Gh,8,1.47919,3,94.1197,1,-160.651,0\Gh,9,1.47783,8,110.487,3,55.8606,0\Gh,9,1.48505,8,107.454,3,-61.3901,0\Gh,9,1.7326,8,107.458,3,173.055,0\Gh,12,1.00743,9,118.409,8,-170.761,0\Gh,12,1.00745,9,118.42,8,52.7231,0\\HF=-346.350808\MP2=-346.710595\\@

 Total job time:  182.85s(wall), 1090.00s(cpu) 
 Wed Jul  3 20:49:31 2019

        *************************************************************
        *                                                           *
        *  Thank you very much for using Q-Chem.  Have a nice day.  *
        *                                                           *
        *************************************************************



Running Job 3 of 3 ../qm_inp/SiH3NH2_SiH3NH2_con3.120.qcinp
qchem ../qm_inp/SiH3NH2_SiH3NH2_con3.120.qcinp_18299.2 /scratch/xuedong/qchem18299/ 1
/home/qwang/software/qchem5.1.2/exe/qcprog.exe_s ../qm_inp/SiH3NH2_SiH3NH2_con3.120.qcinp_18299.2 /scratch/xuedong/qchem18299/
Check license passed

                  Welcome to Q-Chem
     A Quantum Leap Into The Future Of Chemistry


 Q-Chem 5.1, Q-Chem, Inc., Pleasanton, CA (2018)

 Yihan Shao,  Zhengting Gan,  E. Epifanovsky,  A. T. B. Gilbert,  M. Wormit,  
 J. Kussmann,  A. W. Lange,  A. Behn,  Jia Deng,  Xintian Feng,  D. Ghosh,  
 M. Goldey,  P. R. Horn,  L. D. Jacobson,  I. Kaliman,  T. Kus,  A. Landau,  
 Jie Liu,  E. I. Proynov,  R. M. Richard,  R. P. Steele,  E. J. Sundstrom,  
 H. L. Woodcock III,  P. M. Zimmerman,  D. Zuev,  B. Albrecht,  E. Alguire,  
 S. A. Baeppler,  D. Barton,  Z. Benda,  Y. A. Bernard,  E. J. Berquist,  
 K. B. Bravaya,  H. Burton,  D. Casanova,  Chun-Min Chang,  Yunqing Chen,  
 A. Chien,  K. D. Closser,  M. P. Coons,  S. Coriani,  S. Dasgupta,  
 A. L. Dempwolff,  M. Diedenhofen,  Hainam Do,  R. G. Edgar,  Po-Tung Fang,  
 S. Faraji,  S. Fatehi,  Qingguo Feng,  K. D. Fenk,  J. Fosso-Tande,  
 J. Gayvert,  Qinghui Ge,  A. Ghysels,  G. Gidofalvi,  J. Gomes,  
 J. Gonthier,  A. Gunina,  D. Hait,  M. W. D. Hanson-Heine,  
 P. H. P. Harbach,  A. W. Hauser,  J. E. Herr,  E. G. Hohenstein,  
 Z. C. Holden,  Kerwin Hui,  B. C. Huynh,  T.-C. Jagau,  Hyunjun Ji,  
 B. Kaduk,  K. Khistyaev,  Jaehoon Kim,  P. Klunzinger,  K. Koh,  
 D. Kosenkov,  L. Koulias,  T. Kowalczyk,  C. M. Krauter,  A. Kunitsa,  
 Ka Un Lao,  A. Laurent,  K. V. Lawler,  Joonho Lee,  D. Lefrancois,  
 S. Lehtola,  D. S. Levine,  Yi-Pei Li,  You-Sheng Lin,  Fenglai Liu,  
 E. Livshits,  A. Luenser,  P. Manohar,  E. Mansoor,  S. F. Manzer,  
 Shan-Ping Mao,  Yuezhi Mao,  N. Mardirossian,  A. V. Marenich,  
 T. Markovich,  L. A. Martinez-Martinez,  S. A. Maurer,  N. J. Mayhall,  
 S. C. McKenzie,  J.-M. Mewes,  A. F. Morrison,  J. W. Mullinax,  K. Nanda,  
 T. S. Nguyen-Beck,  R. Olivares-Amaya,  J. A. Parkhill,  T. M. Perrine,  
 F. Plasser,  P. Pokhilko,  S. Prager,  A. Prociuk,  E. Ramos,  D. R. Rehn,  
 F. Rob,  M. Schneider,  N. Sergueev,  S. M. Sharada,  S. Sharma,  
 D. W. Small,  T. Stauch,  T. Stein,  Yu-Chuan Su,  A. J. W. Thom,  
 A. Tkatchenko,  T. Tsuchimochi,  N. M. Tubman,  L. Vogt,  M. L. Vidal,  
 O. Vydrov,  M. A. Watson,  J. Wenzel,  M. de Wergifosse,  T. A. Wesolowski,  
 A. White,  J. Witte,  A. Yamada,  Jun Yang,  K. Yao,  S. Yeganeh,  
 S. R. Yost,  Zhi-Qiang You,  A. Zech,  Igor Ying Zhang,  Xing Zhang,  
 Yan Zhao,  Ying Zhu,  B. R. Brooks,  G. K. L. Chan,  C. J. Cramer,  
 M. S. Gordon,  W. J. Hehre,  A. Klamt,  M. W. Schmidt,  C. D. Sherrill,  
 D. G. Truhlar,  A. Aspuru-Guzik,  R. Baer,  A. T. Bell,  N. A. Besley,  
 Jeng-Da Chai,  A. E. DePrince, III,  R. A. DiStasio Jr.,  A. Dreuw,  
 B. D. Dunietz,  T. R. Furlani,  Chao-Ping Hsu,  Yousung Jung,  Jing Kong,  
 D. S. Lambrecht,  WanZhen Liang,  C. Ochsenfeld,  V. A. Rassolov,  
 L. V. Slipchenko,  J. E. Subotnik,  T. Van Voorhis,  J. M. Herbert,  
 A. I. Krylov,  P. M. W. Gill,  M. Head-Gordon

 Contributors to earlier versions of Q-Chem not listed above: 
 R. D. Adamson,  B. Austin,  J. Baker,  G. J. O. Beran,  K. Brandhorst,  
 S. T. Brown,  E. F. C. Byrd,  A. K. Chakraborty,  C.-L. Cheng,  
 Siu Hung Chien,  D. M. Chipman,  D. L. Crittenden,  H. Dachsel,  
 R. J. Doerksen,  A. D. Dutoi,  L. Fusti-Molnar,  W. A. Goddard III,  
 A. Golubeva-Zadorozhnaya,  S. R. Gwaltney,  G. Hawkins,  A. Heyden,  
 S. Hirata,  G. Kedziora,  F. J. Keil,  C. Kelley,  Jihan Kim,  R. A. King,  
 R. Z. Khaliullin,  P. P. Korambath,  W. Kurlancheek,  A. M. Lee,  M. S. Lee,  
 S. V. Levchenko,  Ching Yeh Lin,  D. Liotard,  R. C. Lochan,  I. Lotan,  
 P. E. Maslen,  N. Nair,  D. P. O'Neill,  D. Neuhauser,  E. Neuscamman,  
 C. M. Oana,  R. Olson,  B. Peters,  R. Peverati,  P. A. Pieniazek,  
 Y. M. Rhee,  J. Ritchie,  M. A. Rohrdanz,  E. Rosta,  N. J. Russ,  
 H. F. Schaefer III,  N. E. Schultz,  N. Shenvi,  A. C. Simmonett,  A. Sodt,  
 D. Stuck,  K. S. Thanthiriwatte,  V. Vanovschi,  Tao Wang,  A. Warshel,  
 C. F. Williams,  Q. Wu,  X. Xu,  W. Zhang

 Please cite Q-Chem as follows:
 Y. Shao et al., Mol. Phys. 113, 184-215 (2015)
 DOI: 10.1080/00268976.2014.952696

 Q-Chem 5.1.2 for Intel X86 EM64T Linux

 Parts of Q-Chem use Armadillo 8.300.2 (Tropical Shenanigans).
 http://arma.sourceforge.net/

 Q-Chem begins on Wed Jul  3 20:49:31 2019  

Host: 
0

     Scratch files written to /scratch/xuedong/qchem18299//
 Dec218 |scratch|qcdevops|jenkins|workspace|build_RNUM 6581   
Processing $rem in /home/qwang/software/qchem5.1.2/config/preferences.
 MEM_TOTAL  4000 
Core orbitals will be frozen
Input Ideriv = 1
Curr. Ideriv = -1
Max.  Ideriv = 1

Checking the input file for inconsistencies... 	...done.

--------------------------------------------------------------
User input:
--------------------------------------------------------------

$molecule
0 1
@Si     1.924810978     0.221250999     0.126279543
@H      1.412655312     0.307098559     1.517792385
@H      1.133853934    -0.817922695    -0.568974842
@H      1.726171862     1.539629336    -0.510559482
@N      3.598001176    -0.193061537    -0.046238154
@H      3.898337608    -1.114121400     0.229631138
@H      4.290301474     0.485203856     0.228290528
Si    -2.661084382    -0.394003718    -0.223795837
H     -2.428276360    -0.836708386    -1.622075832
H     -2.236415832    -1.490414477     0.671489256
H     -1.833149247     0.810433302     0.003931476
N     -4.295071525     0.013909878     0.183142938
H     -4.977754083    -0.725802121     0.224136667
H     -4.706099896     0.829056725    -0.242931582
$end

$rem
BASIS = aug-cc-pVTZ
JOB_TYPE  =  SP
METHOD  =  MP2
SCF_MAX_CYCLES  =  200
$end

--------------------------------------------------------------
 ----------------------------------------------------------------
             Standard Nuclear Orientation (Angstroms)
    I     Atom           X                Y                Z
 ----------------------------------------------------------------
    1      GH      1.9248109780     0.2212509990     0.1262795430
    2      GH      1.4126553120     0.3070985590     1.5177923850
    3      GH      1.1338539340    -0.8179226950    -0.5689748420
    4      GH      1.7261718620     1.5396293360    -0.5105594820
    5      GH      3.5980011760    -0.1930615370    -0.0462381540
    6      GH      3.8983376080    -1.1141214000     0.2296311380
    7      GH      4.2903014740     0.4852038560     0.2282905280
    8      Si     -2.6610843820    -0.3940037180    -0.2237958370
    9      H      -2.4282763600    -0.8367083860    -1.6220758320
   10      H      -2.2364158320    -1.4904144770     0.6714892560
   11      H      -1.8331492470     0.8104333020     0.0039314760
   12      N      -4.2950715250     0.0139098780     0.1831429380
   13      H      -4.9777540830    -0.7258021210     0.2241366670
   14      H      -4.7060998960     0.8290567250    -0.2429315820
 ----------------------------------------------------------------
 Nuclear Repulsion Energy =    64.7115287362 hartrees
 There are       13 alpha and       13 beta electrons
 Requested basis set is aug-cc-pVTZ
 There are 150 shells and 422 basis functions

 Total QAlloc Memory Limit   4000 MB
 Mega-Array Size       188 MB
 MEM_STATIC part       192 MB

                       Distance Matrix (Angstroms)
             GH(  1)   GH(  2)   GH(  3)   GH(  4)   GH(  5)   GH(  6)
   GH(  2)  1.485255
   GH(  3)  1.479484  2.387048
   GH(  4)  1.477546  2.394084  2.431523
   GH(  5)  1.732334  2.733512  2.595328  2.592597
   GH(  6)  2.385101  3.139720  2.892728  3.508358  1.007302
   GH(  7)  2.382357  3.158383  3.506698  2.869229  1.007318  1.646657
   Si(  8)  4.640208  4.485536  3.834112  4.803039  6.264827  6.614392
   H (  9)  4.808887  5.091151  3.714586  4.913440  6.262074  6.597865
   H ( 10)  4.532423  4.154877  3.653726  5.126452  6.019857  6.162145
   H ( 11)  3.805834  3.616679  3.432619  3.669495  5.523306  6.050189
   N ( 12)  6.223597  5.869020  5.543542  6.250153  7.899117  8.270826
   H ( 13)  6.967919  6.601345  6.163543  7.114393  8.596540  8.884584
   H ( 14)  6.668937  6.388408  6.076504  6.476933  8.369081  8.833776
             GH(  7)   Si(  8)   H (  9)   H ( 10)   H ( 11)   N ( 12)
   Si(  8)  7.021336
   H (  9)  7.092996  1.485050
   H ( 10)  6.833559  1.477835  2.392610
   H ( 11)  6.136184  1.479191  2.389802  2.429436
   N ( 12)  8.598418  1.732601  2.732634  2.596062  2.593767
   H ( 13)  9.346839  2.382791  3.149704  2.880919  3.506715  1.007427
   H ( 14)  9.015294  2.382925  3.140906  3.509338  2.883597  1.007446
             H ( 13)
   H ( 14)  1.646066
 
 A cutoff of  1.0D-08 yielded   8818 shell pairs
 There are     65820 function pairs (     83594 Cartesian)
 
 -------------------------------------------------------
 OpenMP Integral Computing Module                       
 Release: version 1.0, May 2013, Q-Chem Inc. Pittsburgh 
 -------------------------------------------------------
 Integral Job Info:
 Integral job number is                      11
 Integral operator is                         1
 short-range coefficients                     0
 long-range coefficients              100000000
 Omega coefficients                           0
 if combine SR and LR in K                    0
 Integral screening is                        0
 Integral computing path is                   2
 max size of driver memory is            800000
 size of driver memory is                776718
 size of scratch memory is             29531563
 max col of scratch BK array              10000
 max len of scratch array in speh3          662
 max len of scratch index in speh4           32
 max int batch size is                      520
 min int batch size is                       52
 fixed nKL is                                31
 max L of basis functions is                  3
 order of int derivative is                   0
 number of shells is                        150
 number of basis is                         478
 number of cartesian basis is               478
 number of contracted shell pairs          8818
 number of primitive shell pairs          25710
 maxK2 (contraction) of shell pair          169
 max number of K2 of shell pair               1
 max number of CS2 of shell pair           1645
 max number of PS2 of shell pair           2496
 mem total for path MDJ                  714604
 -------------------------------------------------------
 Smallest overlap matrix eigenvalue = 1.57E-05

 Q-Chem warning in module stvman/mkSTV.C, line 306:

 Overlap eigenvalue is smaller than square root of threshold
 Use THRESH >= 12 to get rid of this warning


 Scale SEOQF with 1.000000e-01/1.000000e-01/1.000000e-01

 Standard Electronic Orientation quadrupole field applied
 Nucleus-field energy     =     0.0000000104 hartrees
 Guess from superposition of atomic densities
 Warning:  Energy on first SCF cycle will be non-variational
 SAD guess density has 26.000000 electrons

 -----------------------------------------------------------------------
  General SCF calculation program by
  Eric Jon Sundstrom, Paul Horn, Yuezhi Mao, Dmitri Zuev, Alec White,
  David Stuck, Shaama M.S., Shane Yost, Joonho Lee, David Small,
  Daniel Levine, Susi Lehtola, Hugh Burton, Evgeny Epifanovsky
 -----------------------------------------------------------------------
 Hartree-Fock
 using 6 threads for integral computing
 -------------------------------------------------------
 OpenMP Integral computing Module                
 Release: version 1.0, May 2013, Q-Chem Inc. Pittsburgh 
 -------------------------------------------------------
 A restricted SCF calculation will be
 performed using DIIS
 SCF converges when DIIS error is below 1.0e-05
 ---------------------------------------
  Cycle       Energy         DIIS error
 ---------------------------------------
    1    -346.4442421766      1.19e-02  
    2    -346.3135706215      1.17e-03  
    3    -346.3441940902      5.50e-04  
    4    -346.3501761355      1.37e-04  
    5    -346.3507848563      1.80e-05  
    6    -346.3508018953      4.34e-06  Convergence criterion met
 ---------------------------------------
 SCF time:   CPU 288.37s  wall 48.00s 
 SCF   energy in the final basis set =     -346.3508018953
 Total energy in the final basis set =     -346.3508018953
 
 Components of the MP2 correlation energy:
        aaaa  correlation energy =        -0.0353207310 au
        abab  correlation energy =        -0.2891562219 au
        bbbb  correlation energy =        -0.0353207310 au
        non-Brillouin singles    =        -0.0000000000 au

 Total  MP2   correlation energy =                    -0.35979768 au
        MP2         total energy =                  -346.71059958 au
 
 --------------------------------------------------------------
 
                    Orbital Energies (a.u.)
 --------------------------------------------------------------
 
 Alpha MOs
 -- Occupied --
-68.778 -15.538  -6.125  -4.231  -4.231  -4.231  -1.137  -0.721
 -0.657  -0.554  -0.492  -0.475  -0.404
 -- Virtual --
  0.023   0.029   0.042   0.045   0.048   0.050   0.062   0.067
  0.068   0.072   0.074   0.084   0.089   0.091   0.096   0.105
  0.113   0.130   0.142   0.146   0.151   0.158   0.162   0.167
  0.173   0.175   0.179   0.182   0.189   0.204   0.209   0.215
  0.221   0.225   0.231   0.239   0.248   0.250   0.257   0.268
  0.278   0.282   0.288   0.302   0.304   0.305   0.313   0.319
  0.320   0.334   0.334   0.346   0.350   0.360   0.364   0.371
  0.375   0.378   0.383   0.385   0.394   0.397   0.403   0.409
  0.412   0.422   0.427   0.440   0.445   0.451   0.456   0.459
  0.463   0.470   0.478   0.484   0.491   0.494   0.513   0.521
  0.529   0.536   0.541   0.567   0.589   0.596   0.599   0.609
  0.615   0.627   0.631   0.645   0.659   0.662   0.670   0.673
  0.674   0.689   0.696   0.699   0.711   0.717   0.730   0.737
  0.740   0.742   0.745   0.769   0.773   0.792   0.799   0.805
  0.816   0.825   0.833   0.841   0.862   0.870   0.899   0.903
  0.924   0.931   0.933   0.936   0.947   0.961   0.975   0.987
  0.991   1.000   1.004   1.018   1.027   1.032   1.033   1.045
  1.053   1.056   1.068   1.074   1.084   1.094   1.097   1.111
  1.125   1.129   1.134   1.139   1.143   1.147   1.160   1.163
  1.168   1.185   1.185   1.195   1.200   1.211   1.214   1.216
  1.233   1.236   1.248   1.254   1.258   1.270   1.277   1.282
  1.301   1.317   1.326   1.338   1.343   1.353   1.358   1.362
  1.371   1.388   1.391   1.394   1.414   1.420   1.426   1.435
  1.436   1.440   1.461   1.472   1.484   1.495   1.511   1.516
  1.528   1.545   1.550   1.555   1.564   1.575   1.589   1.601
  1.609   1.630   1.640   1.646   1.670   1.690   1.702   1.732
  1.742   1.749   1.758   1.763   1.789   1.801   1.819   1.827
  1.851   1.882   1.902   1.916   1.933   1.951   1.957   1.967
  1.977   2.012   2.017   2.030   2.037   2.060   2.082   2.099
  2.117   2.127   2.142   2.162   2.172   2.205   2.214   2.227
  2.253   2.264   2.276   2.311   2.328   2.339   2.348   2.357
  2.385   2.397   2.432   2.454   2.470   2.481   2.500   2.512
  2.519   2.594   2.655   2.700   2.705   2.818   2.835   2.845
  2.858   2.895   2.963   3.003   3.074   3.122   3.129   3.141
  3.176   3.252   3.414   3.537   3.569   3.685   3.702   3.742
  3.751   3.767   3.798   3.976   3.999   4.029   4.036   4.061
  4.099   4.128   4.148   4.151   4.165   4.188   4.206   4.229
  4.239   4.245   4.264   4.271   4.284   4.305   4.314   4.333
  4.361   4.375   4.381   4.386   4.405   4.438   4.458   4.463
  4.481   4.494   4.502   4.511   4.532   4.553   4.556   4.565
  4.573   4.580   4.604   4.628   4.638   4.643   4.653   4.670
  4.675   4.693   4.738   4.745   4.761   4.801   4.805   4.812
  4.819   4.841   4.896   4.945   4.959   4.973   5.007   5.019
  5.035   5.086   5.099   5.103   5.125   5.128   5.138   5.166
  5.190   5.194   5.209   5.231   5.286   5.298   5.310   5.328
  5.342   5.359   5.394   5.419   5.427   5.463   5.519   5.545
  5.576   5.749   5.752   5.904   5.961   5.966   6.011   6.047
  6.065   6.125   6.181   6.193   6.194   6.216   6.365   6.481
  6.622   6.630   6.636   6.735   6.832   7.430   7.493   7.513
  7.607   7.752   7.812   8.105   8.866   9.293   9.340  10.103
 10.951  11.968  14.793  16.295  20.337  20.431  20.938  56.854
106.986
 --------------------------------------------------------------
 
          Ground-State Mulliken Net Atomic Charges

     Atom                 Charge (a.u.)
  ----------------------------------------
      1 GH                    0.016488
      2 GH                   -0.001062
      3 GH                    0.004531
      4 GH                   -0.000442
      5 GH                   -0.000601
      6 GH                   -0.000048
      7 GH                    0.000007
      8 Si                    1.062534
      9 H                    -0.309566
     10 H                    -0.262498
     11 H                    -0.254198
     12 N                    -0.508836
     13 H                     0.123798
     14 H                     0.129892
  ----------------------------------------
  Sum of atomic charges =    -0.000002

 -----------------------------------------------------------------
                    Cartesian Multipole Moments
 -----------------------------------------------------------------
    Charge (ESU x 10^10)
                -0.0000
    Dipole Moment (Debye)
         X      -1.0489      Y      -0.0346      Z      -0.6846
       Tot       1.2531
    Quadrupole Moments (Debye-Ang)
        XX     -13.3547     XY       0.5482     YY     -21.2000
        XZ       3.3281     YZ      -1.0773     ZZ     -24.2775
    Octopole Moments (Debye-Ang^2)
       XXX     150.0450    XXY       1.4874    XYY      61.8990
       YYY      19.5253    XXZ     -12.6655    XYZ       4.8238
       YYZ       1.9831    XZZ      76.5811    YZZ       7.5525
       ZZZ       9.2160
    Hexadecapole Moments (Debye-Ang^3)
      XXXX   -1081.0526   XXXY     -18.0428   XXYY    -208.6672
      XYYY     -49.8090   YYYY     -67.1983   XXXZ      51.8930
      XXYZ     -23.0326   XYYZ      -2.7449   YYYZ      -4.2178
      XXZZ    -275.8597   XYZZ     -19.1703   YYZZ     -21.8099
      XZZZ     -16.3361   YZZZ      -6.3828   ZZZZ     -60.7780
 -----------------------------------------------------------------
Archival summary:
1\1\gm4.localdomain\SP\MP2\BasisUnspecified\i115h7\xuedong\WedJul320:52:342019WedJul320:52:342019\0\\#,MP2,BasisUnspecified,\\0,1\Si\H,1,1.47783\H,1,1.47919,2,110.487\H,1,1.48505,2,107.71,3,117.093,0\N,1,1.7326,2,107.661,3,-117.069,0\H,5,1.00743,1,118.409,2,-51.7377,0\H,5,1.00745,1,118.42,2,171.747,0\Gh,3,3.43262,1,94.1197,2,55.8606,0\Gh,8,1.47948,3,92.8929,1,-160.651,0\Gh,9,1.47755,8,110.628,3,-58.7192,0\Gh,9,1.48525,8,107.249,3,58.6099,0\Gh,9,1.73233,8,107.552,3,-175.825,0\Gh,12,1.0073,9,118.646,8,-53.4135,0\Gh,12,1.00732,9,118.4,8,169.635,0\\HF=-346.350802\MP2=-346.7106\\@

 Total job time:  183.50s(wall), 1093.77s(cpu) 
 Wed Jul  3 20:52:34 2019

        *************************************************************
        *                                                           *
        *  Thank you very much for using Q-Chem.  Have a nice day.  *
        *                                                           *
        *************************************************************


