
Running Job 1 of 1 ../qm_inp/SiH3NH2_water.con1.120.qcinp
qchem ../qm_inp/SiH3NH2_water.con1.120.qcinp_18271.0 /scratch/xuedong/qchem18271/ 1
/home/qwang/software/qchem5.1.2/exe/qcprog.exe_s ../qm_inp/SiH3NH2_water.con1.120.qcinp_18271.0 /scratch/xuedong/qchem18271/
Check license passed

                  Welcome to Q-Chem
     A Quantum Leap Into The Future Of Chemistry


 Q-Chem 5.1, Q-Chem, Inc., Pleasanton, CA (2018)

 Yihan Shao,  Zhengting Gan,  E. Epifanovsky,  A. T. B. Gilbert,  M. Wormit,  
 J. Kussmann,  A. W. Lange,  A. Behn,  Jia Deng,  Xintian Feng,  D. Ghosh,  
 M. Goldey,  P. R. Horn,  L. D. Jacobson,  I. Kaliman,  T. Kus,  A. Landau,  
 Jie Liu,  E. I. Proynov,  R. M. Richard,  R. P. Steele,  E. J. Sundstrom,  
 H. L. Woodcock III,  P. M. Zimmerman,  D. Zuev,  B. Albrecht,  E. Alguire,  
 S. A. Baeppler,  D. Barton,  Z. Benda,  Y. A. Bernard,  E. J. Berquist,  
 K. B. Bravaya,  H. Burton,  D. Casanova,  Chun-Min Chang,  Yunqing Chen,  
 A. Chien,  K. D. Closser,  M. P. Coons,  S. Coriani,  S. Dasgupta,  
 A. L. Dempwolff,  M. Diedenhofen,  Hainam Do,  R. G. Edgar,  Po-Tung Fang,  
 S. Faraji,  S. Fatehi,  Qingguo Feng,  K. D. Fenk,  J. Fosso-Tande,  
 J. Gayvert,  Qinghui Ge,  A. Ghysels,  G. Gidofalvi,  J. Gomes,  
 J. Gonthier,  A. Gunina,  D. Hait,  M. W. D. Hanson-Heine,  
 P. H. P. Harbach,  A. W. Hauser,  J. E. Herr,  E. G. Hohenstein,  
 Z. C. Holden,  Kerwin Hui,  B. C. Huynh,  T.-C. Jagau,  Hyunjun Ji,  
 B. Kaduk,  K. Khistyaev,  Jaehoon Kim,  P. Klunzinger,  K. Koh,  
 D. Kosenkov,  L. Koulias,  T. Kowalczyk,  C. M. Krauter,  A. Kunitsa,  
 Ka Un Lao,  A. Laurent,  K. V. Lawler,  Joonho Lee,  D. Lefrancois,  
 S. Lehtola,  D. S. Levine,  Yi-Pei Li,  You-Sheng Lin,  Fenglai Liu,  
 E. Livshits,  A. Luenser,  P. Manohar,  E. Mansoor,  S. F. Manzer,  
 Shan-Ping Mao,  Yuezhi Mao,  N. Mardirossian,  A. V. Marenich,  
 T. Markovich,  L. A. Martinez-Martinez,  S. A. Maurer,  N. J. Mayhall,  
 S. C. McKenzie,  J.-M. Mewes,  A. F. Morrison,  J. W. Mullinax,  K. Nanda,  
 T. S. Nguyen-Beck,  R. Olivares-Amaya,  J. A. Parkhill,  T. M. Perrine,  
 F. Plasser,  P. Pokhilko,  S. Prager,  A. Prociuk,  E. Ramos,  D. R. Rehn,  
 F. Rob,  M. Schneider,  N. Sergueev,  S. M. Sharada,  S. Sharma,  
 D. W. Small,  T. Stauch,  T. Stein,  Yu-Chuan Su,  A. J. W. Thom,  
 A. Tkatchenko,  T. Tsuchimochi,  N. M. Tubman,  L. Vogt,  M. L. Vidal,  
 O. Vydrov,  M. A. Watson,  J. Wenzel,  M. de Wergifosse,  T. A. Wesolowski,  
 A. White,  J. Witte,  A. Yamada,  Jun Yang,  K. Yao,  S. Yeganeh,  
 S. R. Yost,  Zhi-Qiang You,  A. Zech,  Igor Ying Zhang,  Xing Zhang,  
 Yan Zhao,  Ying Zhu,  B. R. Brooks,  G. K. L. Chan,  C. J. Cramer,  
 M. S. Gordon,  W. J. Hehre,  A. Klamt,  M. W. Schmidt,  C. D. Sherrill,  
 D. G. Truhlar,  A. Aspuru-Guzik,  R. Baer,  A. T. Bell,  N. A. Besley,  
 Jeng-Da Chai,  A. E. DePrince, III,  R. A. DiStasio Jr.,  A. Dreuw,  
 B. D. Dunietz,  T. R. Furlani,  Chao-Ping Hsu,  Yousung Jung,  Jing Kong,  
 D. S. Lambrecht,  WanZhen Liang,  C. Ochsenfeld,  V. A. Rassolov,  
 L. V. Slipchenko,  J. E. Subotnik,  T. Van Voorhis,  J. M. Herbert,  
 A. I. Krylov,  P. M. W. Gill,  M. Head-Gordon

 Contributors to earlier versions of Q-Chem not listed above: 
 R. D. Adamson,  B. Austin,  J. Baker,  G. J. O. Beran,  K. Brandhorst,  
 S. T. Brown,  E. F. C. Byrd,  A. K. Chakraborty,  C.-L. Cheng,  
 Siu Hung Chien,  D. M. Chipman,  D. L. Crittenden,  H. Dachsel,  
 R. J. Doerksen,  A. D. Dutoi,  L. Fusti-Molnar,  W. A. Goddard III,  
 A. Golubeva-Zadorozhnaya,  S. R. Gwaltney,  G. Hawkins,  A. Heyden,  
 S. Hirata,  G. Kedziora,  F. J. Keil,  C. Kelley,  Jihan Kim,  R. A. King,  
 R. Z. Khaliullin,  P. P. Korambath,  W. Kurlancheek,  A. M. Lee,  M. S. Lee,  
 S. V. Levchenko,  Ching Yeh Lin,  D. Liotard,  R. C. Lochan,  I. Lotan,  
 P. E. Maslen,  N. Nair,  D. P. O'Neill,  D. Neuhauser,  E. Neuscamman,  
 C. M. Oana,  R. Olson,  B. Peters,  R. Peverati,  P. A. Pieniazek,  
 Y. M. Rhee,  J. Ritchie,  M. A. Rohrdanz,  E. Rosta,  N. J. Russ,  
 H. F. Schaefer III,  N. E. Schultz,  N. Shenvi,  A. C. Simmonett,  A. Sodt,  
 D. Stuck,  K. S. Thanthiriwatte,  V. Vanovschi,  Tao Wang,  A. Warshel,  
 C. F. Williams,  Q. Wu,  X. Xu,  W. Zhang

 Please cite Q-Chem as follows:
 Y. Shao et al., Mol. Phys. 113, 184-215 (2015)
 DOI: 10.1080/00268976.2014.952696

 Q-Chem 5.1.2 for Intel X86 EM64T Linux

 Parts of Q-Chem use Armadillo 8.300.2 (Tropical Shenanigans).
 http://arma.sourceforge.net/

 Q-Chem begins on Wed Jul 10 16:55:56 2019  

Host: 
0

     Scratch files written to /scratch/xuedong/qchem18271//
 Dec218 |scratch|qcdevops|jenkins|workspace|build_RNUM 6581   
Processing $rem in /home/qwang/software/qchem5.1.2/config/preferences.
 MEM_TOTAL  4000 
Core orbitals will be frozen
Input Ideriv = 1
Curr. Ideriv = -1
Max.  Ideriv = 1

Checking the input file for inconsistencies... 	...done.

--------------------------------------------------------------
User input:
--------------------------------------------------------------
$molecule
0 1
--
0 1
O     2.640573347     0.387661768     0.484745646
H     2.428921256     0.658206165     1.379755289
H     1.777509297     0.191546571     0.091553062
--
0 1
Si    -1.767964809    -0.039135671     0.002061319
H    -3.065822359    -0.302829015    -0.664159608
H    -1.746661484     1.372609497     0.434608175
H    -1.654783435    -0.944902976     1.162912100
N    -0.352790310    -0.294647841    -0.987894859
H    -0.237396824     0.312808051    -1.786743870
H    -0.163691070    -1.244067919    -1.276275416
$end

$rem
BASIS = aug-cc-pVTZ
JOB_TYPE  =  BSSE
METHOD  =  MP2
SCF_CONVERGENCE  =  7
SCF_MAX_CYCLES  =  200
$end

--------------------------------------------------------------
 ----------------------------------------------------------------
             Standard Nuclear Orientation (Angstroms)
    I     Atom           X                Y                Z
 ----------------------------------------------------------------
    1      O       2.9611800720     0.1765255150    -0.0024549339
    2      H       2.9093809226     1.1335595792     0.0184205905
    3      H       2.0349273383    -0.1061166433     0.0080530017
    4      Si     -1.4912505428     0.3384111152    -0.0005683479
    5      H      -2.8914841674    -0.1471112433    -0.0384175117
    6      H      -1.2579925987     1.1759612409    -1.1941660825
    7      H      -1.3110122739     1.1257342894     1.2357307081
    8      N      -0.2670980630    -0.9063648138     0.0009008542
    9      H      -0.2026312360    -1.4857541743    -0.8241022106
   10      H      -0.2234345195    -1.5016790853     0.8157718661
 ----------------------------------------------------------------
 Molecular Point Group                 C1    NOp =  1
 Largest Abelian Subgroup              C1    NOp =  1
 Nuclear Repulsion Energy =   108.1328380283 hartrees
 There are       18 alpha and       18 beta electrons
 Requested basis set is aug-cc-pVTZ
 There are 107 shells and 303 basis functions

 Total QAlloc Memory Limit   4000 MB
 Mega-Array Size       188 MB
 MEM_STATIC part       192 MB

                       Distance Matrix (Angstroms)
             O (  1)   H (  2)   H (  3)   Si(  4)   H (  5)   H (  6)
   H (  2)  0.958662
   H (  3)  0.968474  1.517094
   Si(  4)  4.455373  4.471932  3.554098
   H (  5)  5.861716  5.940824  4.926801  1.482504
   H (  6)  4.496717  4.340411  3.732610  1.476677  2.398869
   H (  7)  4.548157  4.392451  3.770936  1.476753  2.396139  2.430994
   N (  8)  3.405061  3.775131  2.437164  1.745858  2.732291  2.597333
   H (  9)  3.667149  4.153946  2.757272  2.380405  3.104705  2.887120
   H ( 10)  3.691563  4.170706  2.774924  2.379013  3.111749  3.504271
             H (  7)   N (  8)   H (  9)
   N (  8)  2.596919
   H (  9)  3.505894  1.010187
   H ( 10)  2.874455  1.010109  1.640083
 
 A cutoff of  1.0D-10 yielded   5442 shell pairs
 There are     43200 function pairs (     55655 Cartesian)
 
 -------------------------------------------------------
 OpenMP Integral Computing Module                       
 Release: version 1.0, May 2013, Q-Chem Inc. Pittsburgh 
 -------------------------------------------------------
 Integral Job Info:
 Integral job number is                      11
 Integral operator is                         1
 short-range coefficients                     0
 long-range coefficients              100000000
 Omega coefficients                           0
 if combine SR and LR in K                    0
 Integral screening is                        0
 Integral computing path is                   2
 max size of driver memory is            800000
 size of driver memory is                776718
 size of scratch memory is             29531563
 max col of scratch BK array              10000
 max len of scratch array in speh3          662
 max len of scratch index in speh4           32
 max int batch size is                      520
 min int batch size is                       52
 fixed nKL is                                31
 max L of basis functions is                  3
 order of int derivative is                   0
 number of shells is                        107
 number of basis is                         344
 number of cartesian basis is               344
 number of contracted shell pairs          5442
 number of primitive shell pairs          15404
 maxK2 (contraction) of shell pair          169
 max number of K2 of shell pair               1
 max number of CS2 of shell pair            939
 max number of PS2 of shell pair           1092
 mem total for path MDJ                  641440
 -------------------------------------------------------
 Smallest overlap matrix eigenvalue = 1.89E-05

 Scale SEOQF with 1.000000e-01/1.000000e-01/1.000000e-01

 Standard Electronic Orientation quadrupole field applied
 Nucleus-field energy     =     0.0000000052 hartrees
 Guess MOs from converged MOs on fragments

-----------------------------------------------------------------
 SCF on fragment 1 out of 2
/home/qwang/software/qchem5.1.2/exe/qcprog.exe /scratch/xuedong/qchem18271/Frg1.input /scratch/xuedong/qchem18271/Frg1/ > /dev/null 
 SCF on fragment 2 out of 2
/home/qwang/software/qchem5.1.2/exe/qcprog.exe /scratch/xuedong/qchem18271/Frg2.input /scratch/xuedong/qchem18271/Frg2/ > /dev/null 
-----------------------------------------------------------------
 Done with SCF on isolated fragments
-----------------------------------------------------------------

 User-specified occupied guess orbitals will be used
 A restricted Hartree-Fock SCF calculation will be
 performed using Pulay DIIS extrapolation
 SCF converges when DIIS error is below 1.0E-07
 using 6 threads for integral computing
 -------------------------------------------------------
 OpenMP Integral computing Module                
 Release: version 1.0, May 2013, Q-Chem Inc. Pittsburgh 
 -------------------------------------------------------
 ---------------------------------------
  Cycle       Energy         DIIS Error
 ---------------------------------------
    1    -422.4136916083      2.80E-04
    2    -422.4152405602      6.77E-05
    3    -422.4153705577      2.36E-05
    4    -422.4153843940      9.77E-06
    5    -422.4153867064      3.25E-06
    6    -422.4153869449      5.89E-07
    7    -422.4153869564      1.27E-07
    8    -422.4153869568      6.75E-08 Convergence criterion met
 ---------------------------------------
 SCF time:  CPU 219.37 s  wall 36.62 s

-----------------------------------------------------------------
 SCF CP correction for fragment 1 out of 2
/home/qwang/software/qchem5.1.2/exe/qcprog.exe /scratch/xuedong/qchem18271/Frg1.input /scratch/xuedong/qchem18271/Frg1BSSE/ > /dev/null 
 SCF CP correction for fragment 2 out of 2
/home/qwang/software/qchem5.1.2/exe/qcprog.exe /scratch/xuedong/qchem18271/Frg2.input /scratch/xuedong/qchem18271/Frg2BSSE/ > /dev/null 
-----------------------------------------------------------------
 Done with counterpoise correction on fragments
-----------------------------------------------------------------

 SCF   energy in the final basis set = -422.41538696
 Total energy in the final basis set = -422.41538696
 
 Components of the MP2 correlation energy:
        aaaa  correlation energy =        -0.0684988226 au
        abab  correlation energy =        -0.4940804581 au
        bbbb  correlation energy =        -0.0684988226 au
        non-Brillouin singles    =        -0.0000000000 au

 Total  MP2   correlation energy =                    -0.63107810 au
        MP2         total energy =                  -423.04646506 au
 
 --------------------------------------------------------------
 
                    Orbital Energies (a.u.)
 --------------------------------------------------------------
 
 Alpha MOs
 -- Occupied --
-68.791 -20.547 -15.554  -6.137  -4.244  -4.244  -4.243  -1.331
 -1.151  -0.733  -0.694  -0.668  -0.569  -0.564  -0.505  -0.491
 -0.488  -0.422
 -- Virtual --
  0.025   0.038   0.044   0.044   0.060   0.065   0.066   0.074
  0.080   0.086   0.127   0.135   0.147   0.153   0.159   0.161
  0.166   0.179   0.183   0.185   0.189   0.202   0.215   0.238
  0.240   0.247   0.251   0.259   0.282   0.284   0.294   0.306
  0.313   0.334   0.335   0.343   0.350   0.354   0.357   0.368
  0.389   0.393   0.396   0.401   0.409   0.422   0.423   0.452
  0.465   0.474   0.485   0.487   0.506   0.512   0.518   0.540
  0.566   0.587   0.612   0.629   0.631   0.638   0.645   0.648
  0.654   0.674   0.675   0.680   0.702   0.707   0.747   0.748
  0.760   0.773   0.786   0.810   0.819   0.827   0.873   0.917
  0.920   0.923   0.926   0.928   0.947   0.949   0.958   0.967
  0.968   0.978   0.981   0.995   1.010   1.011   1.038   1.043
  1.054   1.064   1.081   1.112   1.119   1.126   1.131   1.138
  1.141   1.161   1.168   1.185   1.196   1.202   1.207   1.225
  1.235   1.269   1.275   1.279   1.305   1.306   1.321   1.336
  1.363   1.363   1.374   1.401   1.407   1.423   1.424   1.443
  1.450   1.467   1.474   1.488   1.505   1.532   1.535   1.569
  1.591   1.638   1.648   1.668   1.697   1.702   1.725   1.762
  1.773   1.810   1.815   1.889   1.899   1.927   1.937   1.982
  1.993   2.003   2.037   2.073   2.087   2.101   2.142   2.179
  2.185   2.221   2.235   2.245   2.280   2.307   2.324   2.362
  2.380   2.440   2.455   2.460   2.485   2.492   2.510   2.523
  2.573   2.635   2.667   2.681   2.747   2.778   2.882   2.970
  3.004   3.048   3.116   3.233   3.365   3.637   3.666   3.701
  3.739   3.780   3.791   3.909   3.978   3.985   4.027   4.076
  4.083   4.094   4.099   4.117   4.126   4.157   4.179   4.191
  4.204   4.220   4.245   4.267   4.267   4.283   4.309   4.319
  4.343   4.361   4.391   4.420   4.458   4.475   4.486   4.492
  4.496   4.542   4.554   4.561   4.580   4.655   4.661   4.667
  4.733   4.757   4.780   4.803   4.816   4.825   4.861   4.878
  4.961   4.971   5.038   5.089   5.094   5.129   5.151   5.173
  5.229   5.249   5.301   5.327   5.332   5.416   5.460   5.535
  5.545   5.573   5.731   5.876   5.980   6.050   6.147   6.189
  6.243   6.528   6.577   6.613   6.753   6.771   6.970   7.154
  7.301   7.340   7.348   7.409   7.481   7.732   7.799   7.996
  7.997   8.842   8.907  16.073  16.788
 --------------------------------------------------------------
 
          Ground-State Mulliken Net Atomic Charges

     Atom                 Charge (a.u.)
  ----------------------------------------
      1 O                    -0.508262
      2 H                     0.191228
      3 H                     0.330758
      4 Si                    1.044720
      5 H                    -0.346993
      6 H                    -0.272871
      7 H                    -0.274444
      8 N                    -0.392796
      9 H                     0.114655
     10 H                     0.114005
  ----------------------------------------
  Sum of atomic charges =    -0.000000

 -----------------------------------------------------------------
                    Cartesian Multipole Moments
 -----------------------------------------------------------------
    Charge (ESU x 10^10)
                -0.0000
    Dipole Moment (Debye)
         X      -2.4477      Y      -0.1866      Z       0.0292
       Tot       2.4550
    Quadrupole Moments (Debye-Ang)
        XX     -39.8131     XY       3.8309     YY     -24.0143
        XZ       0.0968     YZ       0.0517     ZZ     -28.2755
    Octopole Moments (Debye-Ang^2)
       XXX     -12.9688    XXY      12.7732    XYY      12.3370
       YYY      -5.1713    XXZ       0.4489    XYZ       0.2552
       YYZ       0.1555    XZZ       3.3531    YZZ      -5.9460
       ZZZ      -0.1428
    Hexadecapole Moments (Debye-Ang^3)
      XXXX    -760.6231   XXXY      38.3644   XXYY     -99.4451
      XYYY      15.2670   YYYY     -95.6443   XXXZ       0.5813
      XXYZ       0.3115   XYYZ       0.0309   YYYZ       0.0348
      XXZZ    -120.2677   XYZZ       5.0257   YYZZ     -24.2265
      XZZZ       0.1762   YZZZ       0.0279   ZZZZ     -57.3766
 -----------------------------------------------------------------

 ---------------------------------------------------------------------
 *                     Fragment's binding energy                     *
 ---------------------------------------------------------------------
    Fragment           E(TOTAL)         E(CP-CORR)           DE(BSSE)
 ---------------------------------------------------------------------
           1     -76.3289361749     -76.3292213079       0.0002851330
           2    -346.7102919547    -346.7106536745       0.0003617197
     Complex    -423.0464650602
 ---------------------------------------------------------------------
  DE, kJ/mol     -19.0007865851     -17.3024546275
 ---------------------------------------------------------------------

Archival summary:
1\1\gm4.localdomain\SP\MP2\BasisUnspecified\i1117\xuedong\WedJul1017:00:392019WedJul1017:00:392019\0\\#,MP2,BasisUnspecified,\\0,1\Si\H,1,1.47668\H,1,1.47675,2,110.794\H,1,1.4825,2,108.319,3,118.454,0\N,1,1.74586,2,107.117,3,-116.477,0\H,5,1.01011,1,116.82,2,173.099,0\H,5,1.01019,1,116.936,2,-55.856,0\H,5,2.43716,1,115.353,2,57.889,0\O,8,0.968474,5,177.663,1,-160.272,0\H,9,0.958662,8,103.853,5,161.693,0\\HF=-422.415387\MP2=-423.046465\\@

 Total job time:  283.23s(wall), 586.85s(cpu) 
 Wed Jul 10 17:00:39 2019

        *************************************************************
        *                                                           *
        *  Thank you very much for using Q-Chem.  Have a nice day.  *
        *                                                           *
        *************************************************************


