
Running Job 1 of 1 ../qm_inp/SiH3NH2_SiH3NH2_con2.100.qcinp
qchem ../qm_inp/SiH3NH2_SiH3NH2_con2.100.qcinp_31344.0 /scratch/xuedong/qchem31344/ 1
/home/qwang/software/qchem5.1.2/exe/qcprog.exe_s ../qm_inp/SiH3NH2_SiH3NH2_con2.100.qcinp_31344.0 /scratch/xuedong/qchem31344/
Check license passed

                  Welcome to Q-Chem
     A Quantum Leap Into The Future Of Chemistry


 Q-Chem 5.1, Q-Chem, Inc., Pleasanton, CA (2018)

 Yihan Shao,  Zhengting Gan,  E. Epifanovsky,  A. T. B. Gilbert,  M. Wormit,  
 J. Kussmann,  A. W. Lange,  A. Behn,  Jia Deng,  Xintian Feng,  D. Ghosh,  
 M. Goldey,  P. R. Horn,  L. D. Jacobson,  I. Kaliman,  T. Kus,  A. Landau,  
 Jie Liu,  E. I. Proynov,  R. M. Richard,  R. P. Steele,  E. J. Sundstrom,  
 H. L. Woodcock III,  P. M. Zimmerman,  D. Zuev,  B. Albrecht,  E. Alguire,  
 S. A. Baeppler,  D. Barton,  Z. Benda,  Y. A. Bernard,  E. J. Berquist,  
 K. B. Bravaya,  H. Burton,  D. Casanova,  Chun-Min Chang,  Yunqing Chen,  
 A. Chien,  K. D. Closser,  M. P. Coons,  S. Coriani,  S. Dasgupta,  
 A. L. Dempwolff,  M. Diedenhofen,  Hainam Do,  R. G. Edgar,  Po-Tung Fang,  
 S. Faraji,  S. Fatehi,  Qingguo Feng,  K. D. Fenk,  J. Fosso-Tande,  
 J. Gayvert,  Qinghui Ge,  A. Ghysels,  G. Gidofalvi,  J. Gomes,  
 J. Gonthier,  A. Gunina,  D. Hait,  M. W. D. Hanson-Heine,  
 P. H. P. Harbach,  A. W. Hauser,  J. E. Herr,  E. G. Hohenstein,  
 Z. C. Holden,  Kerwin Hui,  B. C. Huynh,  T.-C. Jagau,  Hyunjun Ji,  
 B. Kaduk,  K. Khistyaev,  Jaehoon Kim,  P. Klunzinger,  K. Koh,  
 D. Kosenkov,  L. Koulias,  T. Kowalczyk,  C. M. Krauter,  A. Kunitsa,  
 Ka Un Lao,  A. Laurent,  K. V. Lawler,  Joonho Lee,  D. Lefrancois,  
 S. Lehtola,  D. S. Levine,  Yi-Pei Li,  You-Sheng Lin,  Fenglai Liu,  
 E. Livshits,  A. Luenser,  P. Manohar,  E. Mansoor,  S. F. Manzer,  
 Shan-Ping Mao,  Yuezhi Mao,  N. Mardirossian,  A. V. Marenich,  
 T. Markovich,  L. A. Martinez-Martinez,  S. A. Maurer,  N. J. Mayhall,  
 S. C. McKenzie,  J.-M. Mewes,  A. F. Morrison,  J. W. Mullinax,  K. Nanda,  
 T. S. Nguyen-Beck,  R. Olivares-Amaya,  J. A. Parkhill,  T. M. Perrine,  
 F. Plasser,  P. Pokhilko,  S. Prager,  A. Prociuk,  E. Ramos,  D. R. Rehn,  
 F. Rob,  M. Schneider,  N. Sergueev,  S. M. Sharada,  S. Sharma,  
 D. W. Small,  T. Stauch,  T. Stein,  Yu-Chuan Su,  A. J. W. Thom,  
 A. Tkatchenko,  T. Tsuchimochi,  N. M. Tubman,  L. Vogt,  M. L. Vidal,  
 O. Vydrov,  M. A. Watson,  J. Wenzel,  M. de Wergifosse,  T. A. Wesolowski,  
 A. White,  J. Witte,  A. Yamada,  Jun Yang,  K. Yao,  S. Yeganeh,  
 S. R. Yost,  Zhi-Qiang You,  A. Zech,  Igor Ying Zhang,  Xing Zhang,  
 Yan Zhao,  Ying Zhu,  B. R. Brooks,  G. K. L. Chan,  C. J. Cramer,  
 M. S. Gordon,  W. J. Hehre,  A. Klamt,  M. W. Schmidt,  C. D. Sherrill,  
 D. G. Truhlar,  A. Aspuru-Guzik,  R. Baer,  A. T. Bell,  N. A. Besley,  
 Jeng-Da Chai,  A. E. DePrince, III,  R. A. DiStasio Jr.,  A. Dreuw,  
 B. D. Dunietz,  T. R. Furlani,  Chao-Ping Hsu,  Yousung Jung,  Jing Kong,  
 D. S. Lambrecht,  WanZhen Liang,  C. Ochsenfeld,  V. A. Rassolov,  
 L. V. Slipchenko,  J. E. Subotnik,  T. Van Voorhis,  J. M. Herbert,  
 A. I. Krylov,  P. M. W. Gill,  M. Head-Gordon

 Contributors to earlier versions of Q-Chem not listed above: 
 R. D. Adamson,  B. Austin,  J. Baker,  G. J. O. Beran,  K. Brandhorst,  
 S. T. Brown,  E. F. C. Byrd,  A. K. Chakraborty,  C.-L. Cheng,  
 Siu Hung Chien,  D. M. Chipman,  D. L. Crittenden,  H. Dachsel,  
 R. J. Doerksen,  A. D. Dutoi,  L. Fusti-Molnar,  W. A. Goddard III,  
 A. Golubeva-Zadorozhnaya,  S. R. Gwaltney,  G. Hawkins,  A. Heyden,  
 S. Hirata,  G. Kedziora,  F. J. Keil,  C. Kelley,  Jihan Kim,  R. A. King,  
 R. Z. Khaliullin,  P. P. Korambath,  W. Kurlancheek,  A. M. Lee,  M. S. Lee,  
 S. V. Levchenko,  Ching Yeh Lin,  D. Liotard,  R. C. Lochan,  I. Lotan,  
 P. E. Maslen,  N. Nair,  D. P. O'Neill,  D. Neuhauser,  E. Neuscamman,  
 C. M. Oana,  R. Olson,  B. Peters,  R. Peverati,  P. A. Pieniazek,  
 Y. M. Rhee,  J. Ritchie,  M. A. Rohrdanz,  E. Rosta,  N. J. Russ,  
 H. F. Schaefer III,  N. E. Schultz,  N. Shenvi,  A. C. Simmonett,  A. Sodt,  
 D. Stuck,  K. S. Thanthiriwatte,  V. Vanovschi,  Tao Wang,  A. Warshel,  
 C. F. Williams,  Q. Wu,  X. Xu,  W. Zhang

 Please cite Q-Chem as follows:
 Y. Shao et al., Mol. Phys. 113, 184-215 (2015)
 DOI: 10.1080/00268976.2014.952696

 Q-Chem 5.1.2 for Intel X86 EM64T Linux

 Parts of Q-Chem use Armadillo 8.300.2 (Tropical Shenanigans).
 http://arma.sourceforge.net/

 Q-Chem begins on Wed Jul  3 10:57:39 2019  

Host: 
0

     Scratch files written to /scratch/xuedong/qchem31344//
 Dec218 |scratch|qcdevops|jenkins|workspace|build_RNUM 6581   
Processing $rem in /home/qwang/software/qchem5.1.2/config/preferences.
 MEM_TOTAL  4000 
Core orbitals will be frozen
Input Ideriv = 1
Curr. Ideriv = -1
Max.  Ideriv = 1

Checking the input file for inconsistencies... 	...done.

--------------------------------------------------------------
User input:
--------------------------------------------------------------
$molecule
0 1
--
0 1
Si     2.701607000     0.125690888    -0.270400178
H     3.881940247    -0.764955877    -0.394351651
H     3.074781685     1.254572160     0.606696963
H     2.345683281     0.606987292    -1.620593772
N     1.274958878    -0.611037074     0.407064268
H     1.327705539    -0.932294968     1.362965471
H     0.821958737    -1.325136373    -0.145472211
--
0 1
Si    -2.600909530    -0.035217472    -0.254095329
H    -2.644934111     0.663341330    -1.566383916
H    -3.990663995    -0.093892915     0.250030403
H    -2.098287388    -1.405381902    -0.510464066
N    -1.589782704     0.658761898     0.961140040
H    -1.815136691     1.574502223     1.314535085
H    -0.590691086     0.560243531     0.824499239
$end

$rem
BASIS = aug-cc-pVTZ
JOB_TYPE  =  BSSE
METHOD  =  MP2
SCF_CONVERGENCE  =  8
SCF_MAX_CYCLES  =  200
$end


--------------------------------------------------------------
 ----------------------------------------------------------------
             Standard Nuclear Orientation (Angstroms)
    I     Atom           X                Y                Z
 ----------------------------------------------------------------
    1      Si     -2.7153465758    -0.1072773945     0.2690341686
    2      H      -3.9259985904    -0.6181352360    -0.4202757522
    3      H      -3.0254886749     1.2386863015     0.7935580230
    4      H      -2.3875885497    -1.0356519515     1.3699637856
    5      N      -1.2914593208     0.0363832401    -0.7254293736
    6      H      -1.3238576505     0.6950391679    -1.4901899059
    7      H      -0.8784718378    -0.8223996186    -1.0606559203
    8      Si      2.5775150557    -0.4035673664     0.0673738055
    9      H       2.6015997879    -1.1749446231     1.3387592517
   10      H       3.9800389869    -0.0605639189    -0.2555476891
   11      H       2.0248872095    -1.3023285585    -0.9730757586
   12      N       1.6272863684     1.0378231166     0.0518578950
   13      H       1.8919279992     1.7995409451     0.6551849846
   14      H       0.6218032680     0.9131396481     0.0475676939
 ----------------------------------------------------------------
 Molecular Point Group                 C1    NOp =  1
 Largest Abelian Subgroup              C1    NOp =  1
 Nuclear Repulsion Energy =   209.1539333311 hartrees
 There are       26 alpha and       26 beta electrons
 Requested basis set is aug-cc-pVTZ
 There are 150 shells and 422 basis functions

 Total QAlloc Memory Limit   4000 MB
 Mega-Array Size       188 MB
 MEM_STATIC part       192 MB

                       Distance Matrix (Angstroms)
             Si(  1)   H (  2)   H (  3)   H (  4)   N (  5)   H (  6)
   H (  2)  1.483847
   H (  3)  1.477475  2.394180
   H (  4)  1.476940  2.397078  2.431414
   N (  5)  1.742714  2.731723  2.599945  2.596427
   H (  6)  2.382189  3.104880  2.899415  3.508175  1.009820
   H (  7)  2.377727  3.120774  3.506546  2.868941  1.010170  1.638746
   Si(  8)  5.304982  6.525299  5.883706  5.171898  3.973796  4.342079
   H (  9)  5.527580  6.783346  6.147112  4.991230  4.569912  5.187389
   H ( 10)  6.716067  7.927386  7.201812  6.643776  5.293286  5.497872
   H ( 11)  5.043887  6.015542  5.923179  5.003088  3.584917  3.933316
   N ( 12)  4.496319  5.814128  4.715801  4.707008  3.182159  3.347337
   H ( 13)  5.001205  6.391404  4.951231  5.183000  3.892143  4.020427
   H ( 14)  3.496694  4.821429  3.737007  3.821382  2.242053  2.489551
             H (  7)   Si(  8)   H (  9)   H ( 10)   H ( 11)   N ( 12)
   Si(  8)  3.659469
   H (  9)  4.241743  1.487287
   H ( 10)  4.983344  1.479528  2.384062
   H ( 11)  2.944061  1.481791  2.386086  2.424757
   N ( 12)  3.313147  1.726494  2.738931  2.614650  2.585515
   H ( 13)  4.182559  2.381016  3.133444  2.941026  3.505782  1.007101
   H ( 14)  2.547760  2.357736  3.153865  3.509662  2.814011  1.013193
             H ( 13)
   H ( 14)  1.663768
 
 A cutoff of  1.0D-11 yielded  10447 shell pairs
 There are     82063 function pairs (    105621 Cartesian)
 
 -------------------------------------------------------
 OpenMP Integral Computing Module                       
 Release: version 1.0, May 2013, Q-Chem Inc. Pittsburgh 
 -------------------------------------------------------
 Integral Job Info:
 Integral job number is                      11
 Integral operator is                         1
 short-range coefficients                     0
 long-range coefficients              100000000
 Omega coefficients                           0
 if combine SR and LR in K                    0
 Integral screening is                        0
 Integral computing path is                   2
 max size of driver memory is            800000
 size of driver memory is                776718
 size of scratch memory is             29531563
 max col of scratch BK array              10000
 max len of scratch array in speh3          662
 max len of scratch index in speh4           32
 max int batch size is                      520
 min int batch size is                       52
 fixed nKL is                                31
 max L of basis functions is                  3
 order of int derivative is                   0
 number of shells is                        150
 number of basis is                         478
 number of cartesian basis is               478
 number of contracted shell pairs         10447
 number of primitive shell pairs          30351
 maxK2 (contraction) of shell pair          169
 max number of K2 of shell pair               1
 max number of CS2 of shell pair           1817
 max number of PS2 of shell pair           2860
 mem total for path MDJ                  761616
 -------------------------------------------------------
 Smallest overlap matrix eigenvalue = 1.62E-05

 Scale SEOQF with 1.000000e-01/1.000000e-01/1.000000e-01

 Standard Electronic Orientation quadrupole field applied
 Nucleus-field energy     =     0.0000000104 hartrees
 Guess MOs from converged MOs on fragments

-----------------------------------------------------------------
 SCF on fragment 1 out of 2
/home/qwang/software/qchem5.1.2/exe/qcprog.exe /scratch/xuedong/qchem31344/Frg1.input /scratch/xuedong/qchem31344/Frg1/ > /dev/null 
 SCF on fragment 2 out of 2
/home/qwang/software/qchem5.1.2/exe/qcprog.exe /scratch/xuedong/qchem31344/Frg2.input /scratch/xuedong/qchem31344/Frg2/ > /dev/null 
-----------------------------------------------------------------
 Done with SCF on isolated fragments
-----------------------------------------------------------------

 User-specified occupied guess orbitals will be used
 A restricted Hartree-Fock SCF calculation will be
 performed using Pulay DIIS extrapolation
 SCF converges when DIIS error is below 1.0E-08
 using 6 threads for integral computing
 -------------------------------------------------------
 OpenMP Integral computing Module                
 Release: version 1.0, May 2013, Q-Chem Inc. Pittsburgh 
 -------------------------------------------------------
 ---------------------------------------
  Cycle       Energy         DIIS Error
 ---------------------------------------
    1    -692.7001426450      2.60E-04
    2    -692.7026197968      5.94E-05
    3    -692.7028211173      1.79E-05
    4    -692.7028392841      6.91E-06
    5    -692.7028414671      2.30E-06
    6    -692.7028416726      4.63E-07
    7    -692.7028416867      9.33E-08
    8    -692.7028416874      3.44E-08
    9    -692.7028416874      1.09E-08
   10    -692.7028416874      3.23E-09 Convergence criterion met
 ---------------------------------------
 SCF time:  CPU 1091.63 s  wall 181.92 s

-----------------------------------------------------------------
 SCF CP correction for fragment 1 out of 2
/home/qwang/software/qchem5.1.2/exe/qcprog.exe /scratch/xuedong/qchem31344/Frg1.input /scratch/xuedong/qchem31344/Frg1BSSE/ > /dev/null 
 SCF CP correction for fragment 2 out of 2
/home/qwang/software/qchem5.1.2/exe/qcprog.exe /scratch/xuedong/qchem31344/Frg2.input /scratch/xuedong/qchem31344/Frg2BSSE/ > /dev/null 
-----------------------------------------------------------------
 Done with counterpoise correction on fragments
-----------------------------------------------------------------

 SCF   energy in the final basis set = -692.70284169
 Total energy in the final basis set = -692.70284169
 
 Components of the MP2 correlation energy:
        aaaa  correlation energy =        -0.0717896401 au
        abab  correlation energy =        -0.5809609186 au
        bbbb  correlation energy =        -0.0717896401 au
        non-Brillouin singles    =        -0.0000000000 au

 Total  MP2   correlation energy =                    -0.72454020 au
        MP2         total energy =                  -693.42738189 au
 
 --------------------------------------------------------------
 
                    Orbital Energies (a.u.)
 --------------------------------------------------------------
 
 Alpha MOs
 -- Occupied --
-68.788 -68.772 -15.549 -15.523  -6.134  -6.118  -4.240  -4.240
 -4.240  -4.224  -4.224  -4.224  -1.149  -1.123  -0.730  -0.712
 -0.664  -0.647  -0.563  -0.544  -0.500  -0.485  -0.484  -0.469
 -0.417  -0.392
 -- Virtual --
  0.027   0.039   0.041   0.041   0.053   0.058   0.061   0.062
  0.070   0.074   0.078   0.081   0.085   0.094   0.100   0.107
  0.133   0.136   0.146   0.149   0.152   0.155   0.162   0.166
  0.170   0.177   0.182   0.192   0.194   0.201   0.207   0.209
  0.213   0.218   0.234   0.236   0.246   0.253   0.254   0.264
  0.272   0.279   0.282   0.294   0.303   0.310   0.316   0.322
  0.327   0.332   0.335   0.344   0.350   0.354   0.364   0.365
  0.375   0.381   0.382   0.391   0.397   0.402   0.406   0.412
  0.419   0.426   0.433   0.443   0.452   0.458   0.460   0.469
  0.476   0.487   0.493   0.498   0.511   0.515   0.525   0.531
  0.540   0.549   0.556   0.562   0.571   0.587   0.601   0.607
  0.609   0.614   0.629   0.634   0.637   0.644   0.655   0.658
  0.663   0.669   0.677   0.679   0.682   0.684   0.692   0.704
  0.713   0.725   0.738   0.742   0.767   0.770   0.779   0.800
  0.820   0.829   0.842   0.852   0.871   0.879   0.900   0.918
  0.930   0.936   0.943   0.956   0.963   0.967   0.977   0.984
  0.989   0.993   0.995   0.999   1.010   1.018   1.026   1.040
  1.046   1.055   1.066   1.069   1.078   1.082   1.099   1.111
  1.126   1.132   1.133   1.146   1.153   1.156   1.165   1.174
  1.188   1.195   1.199   1.203   1.204   1.211   1.216   1.223
  1.234   1.239   1.254   1.258   1.275   1.285   1.292   1.304
  1.308   1.314   1.323   1.332   1.332   1.341   1.350   1.359
  1.365   1.370   1.379   1.392   1.397   1.408   1.411   1.413
  1.428   1.438   1.445   1.452   1.461   1.467   1.473   1.479
  1.485   1.493   1.503   1.521   1.524   1.540   1.543   1.569
  1.580   1.595   1.610   1.623   1.637   1.651   1.668   1.696
  1.721   1.736   1.750   1.770   1.777   1.803   1.828   1.850
  1.866   1.875   1.883   1.909   1.921   1.944   1.966   1.977
  1.987   2.016   2.026   2.043   2.053   2.060   2.077   2.096
  2.104   2.118   2.141   2.148   2.177   2.187   2.204   2.214
  2.233   2.238   2.245   2.252   2.262   2.278   2.288   2.335
  2.341   2.360   2.371   2.416   2.424   2.433   2.466   2.483
  2.511   2.521   2.570   2.613   2.628   2.717   2.752   2.795
  2.963   3.088   3.132   3.160   3.201   3.250   3.394   3.426
  3.644   3.673   3.682   3.708   3.716   3.727   3.774   3.822
  3.842   3.847   3.987   3.990   4.009   4.031   4.042   4.049
  4.058   4.088   4.096   4.105   4.121   4.126   4.129   4.143
  4.150   4.167   4.179   4.184   4.192   4.201   4.211   4.221
  4.253   4.268   4.276   4.281   4.292   4.310   4.316   4.332
  4.340   4.367   4.379   4.399   4.419   4.433   4.489   4.497
  4.516   4.521   4.531   4.548   4.560   4.567   4.572   4.579
  4.588   4.597   4.630   4.643   4.652   4.687   4.712   4.730
  4.754   4.763   4.783   4.801   4.808   4.817   4.827   4.833
  4.845   4.858   4.873   4.918   4.942   4.975   4.994   5.012
  5.064   5.068   5.108   5.114   5.122   5.143   5.161   5.184
  5.202   5.221   5.278   5.294   5.330   5.338   5.391   5.395
  5.462   5.492   5.568   5.580   5.607   5.686   5.891   5.975
  5.991   6.012   6.071   6.104   6.163   6.205   6.221   6.267
  6.529   6.596   6.633   6.691   6.809   6.904   7.783   7.817
  8.863   9.019  16.753  17.108
 --------------------------------------------------------------
 
          Ground-State Mulliken Net Atomic Charges

     Atom                 Charge (a.u.)
  ----------------------------------------
      1 Si                    0.981398
      2 H                    -0.347185
      3 H                    -0.285371
      4 H                    -0.283219
      5 N                    -0.264756
      6 H                     0.096156
      7 H                     0.103685
      8 Si                    1.092504
      9 H                    -0.358190
     10 H                    -0.321051
     11 H                    -0.310252
     12 N                    -0.517279
     13 H                     0.114792
     14 H                     0.298768
  ----------------------------------------
  Sum of atomic charges =    -0.000000

 -----------------------------------------------------------------
                    Cartesian Multipole Moments
 -----------------------------------------------------------------
    Charge (ESU x 10^10)
                -0.0000
    Dipole Moment (Debye)
         X      -1.2636      Y       0.2172      Z      -0.3299
       Tot       1.3239
    Quadrupole Moments (Debye-Ang)
        XX     -48.1512     XY       0.3820     YY     -43.3452
        XZ       2.8109     YZ       1.9591     ZZ     -43.6738
    Octopole Moments (Debye-Ang^2)
       XXX      -1.8402    XXY       6.4314    XYY       1.0195
       YYY       7.5302    XXZ       3.9582    XYZ       7.2830
       YYZ      -0.4492    XZZ      -3.9198    YZZ       5.4510
       ZZZ      -7.9802
    Hexadecapole Moments (Debye-Ang^3)
      XXXX   -1704.5335   XXXY       4.3875   XXYY    -296.8737
      XYYY      16.3385   YYYY    -160.3069   XXXZ       2.0044
      XXYZ       6.3368   XYYZ      14.5662   YYYZ       9.8729
      XXZZ    -293.0008   XYZZ       4.0528   YYZZ     -49.6154
      XZZZ       9.1020   YZZZ       1.4402   ZZZZ    -129.5715
 -----------------------------------------------------------------

 ---------------------------------------------------------------------
 *                     Fragment's binding energy                     *
 ---------------------------------------------------------------------
    Fragment           E(TOTAL)         E(CP-CORR)           DE(BSSE)
 ---------------------------------------------------------------------
           1    -346.7103320648    -346.7109487090       0.0006166441
           2    -346.7101939122    -346.7106201887       0.0004262765
     Complex    -693.4273818862
 ---------------------------------------------------------------------
  DE, kJ/mol     -18.0004031227     -15.2621824419
 ---------------------------------------------------------------------

Archival summary:
1\1\mm2.localdomain\SP\MP2\BasisUnspecified\i2210\xuedong\WedJul311:20:102019WedJul311:20:102019\0\\#,MP2,BasisUnspecified,\\0,1\Si\H,1,1.47953\H,1,1.48179,2,109.932\H,1,1.48729,2,106.946,3,115.775,0\N,1,1.72649,2,109.04,3,-117.186,0\H,5,1.0071,1,118.779,2,-57.0413,0\H,5,1.01319,1,116.327,2,166.451,0\N,7,2.24205,5,153.694,1,-50.7567,0\H,8,1.00982,7,91.9151,5,-80.2275,0\H,8,1.01017,7,95.6231,5,28.514,0\Si,8,1.74271,7,122.19,5,155.4,0\H,11,1.47694,8,107.209,7,-63.6999,0\H,11,1.47747,8,107.397,7,55.3809,0\H,11,1.48385,8,115.462,7,175.769,0\\HF=-692.702842\MP2=-693.427382\\@

 Total job time:  1351.73s(wall), 3740.99s(cpu) 
 Wed Jul  3 11:20:10 2019

        *************************************************************
        *                                                           *
        *  Thank you very much for using Q-Chem.  Have a nice day.  *
        *                                                           *
        *************************************************************


