
Running Job 1 of 3 ../qm_inp/SiH3NH2_SiH3NH2_con3.090.qcinp
qchem ../qm_inp/SiH3NH2_SiH3NH2_con3.090.qcinp_17445.0 /scratch/xuedong/qchem17445/ 1
/home/qwang/software/qchem5.1.2/exe/qcprog.exe_s ../qm_inp/SiH3NH2_SiH3NH2_con3.090.qcinp_17445.0 /scratch/xuedong/qchem17445/
Check license passed

                  Welcome to Q-Chem
     A Quantum Leap Into The Future Of Chemistry


 Q-Chem 5.1, Q-Chem, Inc., Pleasanton, CA (2018)

 Yihan Shao,  Zhengting Gan,  E. Epifanovsky,  A. T. B. Gilbert,  M. Wormit,  
 J. Kussmann,  A. W. Lange,  A. Behn,  Jia Deng,  Xintian Feng,  D. Ghosh,  
 M. Goldey,  P. R. Horn,  L. D. Jacobson,  I. Kaliman,  T. Kus,  A. Landau,  
 Jie Liu,  E. I. Proynov,  R. M. Richard,  R. P. Steele,  E. J. Sundstrom,  
 H. L. Woodcock III,  P. M. Zimmerman,  D. Zuev,  B. Albrecht,  E. Alguire,  
 S. A. Baeppler,  D. Barton,  Z. Benda,  Y. A. Bernard,  E. J. Berquist,  
 K. B. Bravaya,  H. Burton,  D. Casanova,  Chun-Min Chang,  Yunqing Chen,  
 A. Chien,  K. D. Closser,  M. P. Coons,  S. Coriani,  S. Dasgupta,  
 A. L. Dempwolff,  M. Diedenhofen,  Hainam Do,  R. G. Edgar,  Po-Tung Fang,  
 S. Faraji,  S. Fatehi,  Qingguo Feng,  K. D. Fenk,  J. Fosso-Tande,  
 J. Gayvert,  Qinghui Ge,  A. Ghysels,  G. Gidofalvi,  J. Gomes,  
 J. Gonthier,  A. Gunina,  D. Hait,  M. W. D. Hanson-Heine,  
 P. H. P. Harbach,  A. W. Hauser,  J. E. Herr,  E. G. Hohenstein,  
 Z. C. Holden,  Kerwin Hui,  B. C. Huynh,  T.-C. Jagau,  Hyunjun Ji,  
 B. Kaduk,  K. Khistyaev,  Jaehoon Kim,  P. Klunzinger,  K. Koh,  
 D. Kosenkov,  L. Koulias,  T. Kowalczyk,  C. M. Krauter,  A. Kunitsa,  
 Ka Un Lao,  A. Laurent,  K. V. Lawler,  Joonho Lee,  D. Lefrancois,  
 S. Lehtola,  D. S. Levine,  Yi-Pei Li,  You-Sheng Lin,  Fenglai Liu,  
 E. Livshits,  A. Luenser,  P. Manohar,  E. Mansoor,  S. F. Manzer,  
 Shan-Ping Mao,  Yuezhi Mao,  N. Mardirossian,  A. V. Marenich,  
 T. Markovich,  L. A. Martinez-Martinez,  S. A. Maurer,  N. J. Mayhall,  
 S. C. McKenzie,  J.-M. Mewes,  A. F. Morrison,  J. W. Mullinax,  K. Nanda,  
 T. S. Nguyen-Beck,  R. Olivares-Amaya,  J. A. Parkhill,  T. M. Perrine,  
 F. Plasser,  P. Pokhilko,  S. Prager,  A. Prociuk,  E. Ramos,  D. R. Rehn,  
 F. Rob,  M. Schneider,  N. Sergueev,  S. M. Sharada,  S. Sharma,  
 D. W. Small,  T. Stauch,  T. Stein,  Yu-Chuan Su,  A. J. W. Thom,  
 A. Tkatchenko,  T. Tsuchimochi,  N. M. Tubman,  L. Vogt,  M. L. Vidal,  
 O. Vydrov,  M. A. Watson,  J. Wenzel,  M. de Wergifosse,  T. A. Wesolowski,  
 A. White,  J. Witte,  A. Yamada,  Jun Yang,  K. Yao,  S. Yeganeh,  
 S. R. Yost,  Zhi-Qiang You,  A. Zech,  Igor Ying Zhang,  Xing Zhang,  
 Yan Zhao,  Ying Zhu,  B. R. Brooks,  G. K. L. Chan,  C. J. Cramer,  
 M. S. Gordon,  W. J. Hehre,  A. Klamt,  M. W. Schmidt,  C. D. Sherrill,  
 D. G. Truhlar,  A. Aspuru-Guzik,  R. Baer,  A. T. Bell,  N. A. Besley,  
 Jeng-Da Chai,  A. E. DePrince, III,  R. A. DiStasio Jr.,  A. Dreuw,  
 B. D. Dunietz,  T. R. Furlani,  Chao-Ping Hsu,  Yousung Jung,  Jing Kong,  
 D. S. Lambrecht,  WanZhen Liang,  C. Ochsenfeld,  V. A. Rassolov,  
 L. V. Slipchenko,  J. E. Subotnik,  T. Van Voorhis,  J. M. Herbert,  
 A. I. Krylov,  P. M. W. Gill,  M. Head-Gordon

 Contributors to earlier versions of Q-Chem not listed above: 
 R. D. Adamson,  B. Austin,  J. Baker,  G. J. O. Beran,  K. Brandhorst,  
 S. T. Brown,  E. F. C. Byrd,  A. K. Chakraborty,  C.-L. Cheng,  
 Siu Hung Chien,  D. M. Chipman,  D. L. Crittenden,  H. Dachsel,  
 R. J. Doerksen,  A. D. Dutoi,  L. Fusti-Molnar,  W. A. Goddard III,  
 A. Golubeva-Zadorozhnaya,  S. R. Gwaltney,  G. Hawkins,  A. Heyden,  
 S. Hirata,  G. Kedziora,  F. J. Keil,  C. Kelley,  Jihan Kim,  R. A. King,  
 R. Z. Khaliullin,  P. P. Korambath,  W. Kurlancheek,  A. M. Lee,  M. S. Lee,  
 S. V. Levchenko,  Ching Yeh Lin,  D. Liotard,  R. C. Lochan,  I. Lotan,  
 P. E. Maslen,  N. Nair,  D. P. O'Neill,  D. Neuhauser,  E. Neuscamman,  
 C. M. Oana,  R. Olson,  B. Peters,  R. Peverati,  P. A. Pieniazek,  
 Y. M. Rhee,  J. Ritchie,  M. A. Rohrdanz,  E. Rosta,  N. J. Russ,  
 H. F. Schaefer III,  N. E. Schultz,  N. Shenvi,  A. C. Simmonett,  A. Sodt,  
 D. Stuck,  K. S. Thanthiriwatte,  V. Vanovschi,  Tao Wang,  A. Warshel,  
 C. F. Williams,  Q. Wu,  X. Xu,  W. Zhang

 Please cite Q-Chem as follows:
 Y. Shao et al., Mol. Phys. 113, 184-215 (2015)
 DOI: 10.1080/00268976.2014.952696

 Q-Chem 5.1.2 for Intel X86 EM64T Linux

 Parts of Q-Chem use Armadillo 8.300.2 (Tropical Shenanigans).
 http://arma.sourceforge.net/

 Q-Chem begins on Wed Jul  3 19:46:54 2019  

Host: 
0

     Scratch files written to /scratch/xuedong/qchem17445//
 Dec218 |scratch|qcdevops|jenkins|workspace|build_RNUM 6581   
Processing $rem in /home/qwang/software/qchem5.1.2/config/preferences.
 MEM_TOTAL  4000 
Core orbitals will be frozen
Input Ideriv = 1
Curr. Ideriv = -1
Max.  Ideriv = 1

Checking the input file for inconsistencies... 	...done.

--------------------------------------------------------------
User input:
--------------------------------------------------------------
$molecule
0 1
Si     1.924810978     0.221250999     0.126279543
H     1.412655312     0.307098559     1.517792385
H     1.133853934    -0.817922695    -0.568974842
H     1.726171862     1.539629336    -0.510559482
N     3.598001176    -0.193061537    -0.046238154
H     3.898337608    -1.114121400     0.229631138
H     4.290301474     0.485203856     0.228290528
Si    -1.532378075    -0.325796447    -0.188045311
H    -1.299570052    -0.768501115    -1.586325306
H    -1.107709524    -1.422207205     0.707239783
H    -0.704442940     0.878640573     0.039682003
N    -3.166365218     0.082117149     0.218893464
H    -3.849047776    -0.657594850     0.259887193
H    -3.577393589     0.897263996    -0.207181056
$end

$rem
BASIS = aug-cc-pVTZ
JOB_TYPE  =  SP
METHOD  =  MP2
SCF_MAX_CYCLES  =  200
$end

--------------------------------------------------------------
 ----------------------------------------------------------------
             Standard Nuclear Orientation (Angstroms)
    I     Atom           X                Y                Z
 ----------------------------------------------------------------
    1      Si     -1.7324626686     0.2468740967    -0.0270438031
    2      H      -1.2447689372     0.7064805263    -1.3525240834
    3      H      -0.9033203251    -0.9132377742     0.3673381095
    4      H      -1.5588965230     1.3598395601     0.9291599159
    5      N      -3.3911300312    -0.2476146287     0.0456621285
    6      H      -3.6712075957    -1.0738903549    -0.4578079223
    7      H      -4.1054436789     0.4577782609    -0.0372023831
    8      Si      1.7425625546    -0.2599579517     0.1053878518
    9      H       1.5436685004    -1.0574529312     1.3422455057
   10      H       1.3331046173    -1.0982594361    -1.0407317523
   11      H       0.8794407413     0.9371048136     0.2057189219
   12      N       3.3585198621     0.2880901829    -0.1949983571
   13      H       4.0598782281    -0.3949256229    -0.4326865009
   14      H       3.7544177515     0.9764080498     0.4250271067
 ----------------------------------------------------------------
 Molecular Point Group                 C1    NOp =  1
 Largest Abelian Subgroup              C1    NOp =  1
 Nuclear Repulsion Energy =   211.5366107154 hartrees
 There are       26 alpha and       26 beta electrons
 Requested basis set is aug-cc-pVTZ
 There are 150 shells and 422 basis functions

 Total QAlloc Memory Limit   4000 MB
 Mega-Array Size       188 MB
 MEM_STATIC part       192 MB

                       Distance Matrix (Angstroms)
             Si(  1)   H (  2)   H (  3)   H (  4)   N (  5)   H (  6)
   H (  2)  1.485255
   H (  3)  1.479484  2.387048
   H (  4)  1.477546  2.394084  2.431523
   N (  5)  1.732334  2.733512  2.595328  2.592597
   H (  6)  2.385101  3.139720  2.892728  3.508358  1.007302
   H (  7)  2.382357  3.158383  3.506698  2.869229  1.007318  1.646657
   Si(  8)  3.514288  3.461742  2.737899  3.768551  5.134055  5.503506
   H (  9)  3.782758  4.260121  2.637991  3.954725  5.166159  5.516828
   H ( 10)  3.497806  3.162235  2.649243  4.276259  4.921610  5.038207
   H ( 11)  2.711575  2.644537  2.574515  2.578286  4.434744  5.019240
   N ( 12)  5.093919  4.764996  4.463484  5.156875  6.775151  7.165272
   H ( 13)  5.841889  5.495314  5.053912  6.041892  7.467800  7.760883
   H ( 14)  5.553597  5.312666  5.026790  5.350932  7.259546  7.753904
             H (  7)   Si(  8)   H (  9)   H ( 10)   H ( 11)   N ( 12)
   Si(  8)  5.893611
   H (  9)  6.009265  1.485050
   H ( 10)  5.745096  1.477835  2.392610
   H ( 11)  5.013765  1.479191  2.389802  2.429436
   N ( 12)  7.467560  1.732601  2.732634  2.596062  2.593767
   H ( 13)  8.219245  2.382791  3.149704  2.880919  3.506715  1.007427
   H ( 14)  7.890504  2.382925  3.140906  3.509338  2.883597  1.007446
             H ( 13)
   H ( 14)  1.646066
 
 A cutoff of  1.0D-08 yielded   9457 shell pairs
 There are     72261 function pairs (     92331 Cartesian)
 
 -------------------------------------------------------
 OpenMP Integral Computing Module                       
 Release: version 1.0, May 2013, Q-Chem Inc. Pittsburgh 
 -------------------------------------------------------
 Integral Job Info:
 Integral job number is                      11
 Integral operator is                         1
 short-range coefficients                     0
 long-range coefficients              100000000
 Omega coefficients                           0
 if combine SR and LR in K                    0
 Integral screening is                        0
 Integral computing path is                   2
 max size of driver memory is            800000
 size of driver memory is                776718
 size of scratch memory is             29531563
 max col of scratch BK array              10000
 max len of scratch array in speh3          662
 max len of scratch index in speh4           32
 max int batch size is                      520
 min int batch size is                       52
 fixed nKL is                                31
 max L of basis functions is                  3
 order of int derivative is                   0
 number of shells is                        150
 number of basis is                         478
 number of cartesian basis is               478
 number of contracted shell pairs          9457
 number of primitive shell pairs          28028
 maxK2 (contraction) of shell pair          169
 max number of K2 of shell pair               1
 max number of CS2 of shell pair           1709
 max number of PS2 of shell pair           2730
 mem total for path MDJ                  731244
 -------------------------------------------------------
 Smallest overlap matrix eigenvalue = 1.16E-05

 Q-Chem warning in module stvman/mkSTV.C, line 306:

 Overlap eigenvalue is smaller than square root of threshold
 Use THRESH >= 12 to get rid of this warning


 Scale SEOQF with 1.000000e-01/1.000000e-01/1.000000e-01

 Standard Electronic Orientation quadrupole field applied
 Nucleus-field energy     =     0.0000000113 hartrees
 Guess from superposition of atomic densities
 Warning:  Energy on first SCF cycle will be non-variational
 SAD guess density has 52.000000 electrons

 -----------------------------------------------------------------------
  General SCF calculation program by
  Eric Jon Sundstrom, Paul Horn, Yuezhi Mao, Dmitri Zuev, Alec White,
  David Stuck, Shaama M.S., Shane Yost, Joonho Lee, David Small,
  Daniel Levine, Susi Lehtola, Hugh Burton, Evgeny Epifanovsky
 -----------------------------------------------------------------------
 Hartree-Fock
 using 6 threads for integral computing
 -------------------------------------------------------
 OpenMP Integral computing Module                
 Release: version 1.0, May 2013, Q-Chem Inc. Pittsburgh 
 -------------------------------------------------------
 A restricted SCF calculation will be
 performed using DIIS
 SCF converges when DIIS error is below 1.0e-05
 ---------------------------------------
  Cycle       Energy         DIIS error
 ---------------------------------------
    1    -692.9868928445      1.70e-02  
    2    -692.6177395852      1.68e-03  
    3    -692.6820986358      7.86e-04  
    4    -692.6944448587      1.98e-04  
    5    -692.6957548511      2.57e-05  
    6    -692.6957889563      5.93e-06  Convergence criterion met
 ---------------------------------------
 SCF time:   CPU 395.73s  wall 66.00s 
 SCF   energy in the final basis set =     -692.6957889563
 Total energy in the final basis set =     -692.6957889563
 
 Components of the MP2 correlation energy:
        aaaa  correlation energy =        -0.0722423520 au
        abab  correlation energy =        -0.5820995415 au
        bbbb  correlation energy =        -0.0722423520 au
        non-Brillouin singles    =        -0.0000000000 au

 Total  MP2   correlation energy =                    -0.72658425 au
        MP2         total energy =                  -693.42237320 au
 
 --------------------------------------------------------------
 
                    Orbital Energies (a.u.)
 --------------------------------------------------------------
 
 Alpha MOs
 -- Occupied --
-68.776 -68.776 -15.535 -15.535  -6.122  -6.122  -4.229  -4.229
 -4.229  -4.228  -4.228  -4.228  -1.134  -1.134  -0.736  -0.707
 -0.654  -0.654  -0.565  -0.542  -0.491  -0.489  -0.479  -0.466
 -0.404  -0.398
 -- Virtual --
  0.027   0.031   0.043   0.049   0.051   0.056   0.065   0.069
  0.070   0.078   0.079   0.089   0.092   0.101   0.107   0.117
  0.122   0.138   0.150   0.157   0.159   0.160   0.167   0.175
  0.177   0.177   0.182   0.185   0.188   0.195   0.215   0.223
  0.232   0.235   0.241   0.250   0.255   0.266   0.273   0.279
  0.281   0.286   0.289   0.306   0.308   0.315   0.320   0.326
  0.329   0.335   0.343   0.344   0.347   0.361   0.362   0.371
  0.381   0.385   0.391   0.392   0.401   0.406   0.411   0.420
  0.424   0.426   0.432   0.445   0.451   0.461   0.464   0.469
  0.478   0.485   0.488   0.495   0.503   0.509   0.524   0.543
  0.558   0.560   0.566   0.573   0.583   0.602   0.613   0.621
  0.626   0.630   0.648   0.652   0.657   0.663   0.673   0.680
  0.684   0.690   0.694   0.701   0.709   0.718   0.725   0.734
  0.747   0.749   0.760   0.764   0.772   0.784   0.801   0.825
  0.839   0.848   0.869   0.889   0.900   0.905   0.928   0.930
  0.933   0.939   0.946   0.954   0.966   0.979   0.983   0.986
  1.001   1.010   1.024   1.028   1.033   1.046   1.052   1.057
  1.060   1.065   1.072   1.082   1.096   1.100   1.106   1.114
  1.125   1.133   1.141   1.147   1.148   1.153   1.167   1.173
  1.183   1.195   1.198   1.206   1.217   1.222   1.235   1.245
  1.250   1.255   1.260   1.266   1.277   1.294   1.300   1.307
  1.316   1.325   1.334   1.342   1.347   1.361   1.366   1.373
  1.377   1.390   1.400   1.405   1.409   1.419   1.425   1.435
  1.441   1.447   1.461   1.470   1.481   1.487   1.495   1.509
  1.515   1.523   1.534   1.556   1.560   1.570   1.584   1.591
  1.610   1.615   1.620   1.631   1.665   1.689   1.701   1.732
  1.743   1.754   1.765   1.785   1.814   1.821   1.829   1.835
  1.854   1.889   1.899   1.920   1.929   1.950   1.962   1.976
  1.988   1.998   2.032   2.045   2.052   2.063   2.070   2.093
  2.113   2.118   2.147   2.156   2.176   2.185   2.215   2.230
  2.246   2.250   2.261   2.269   2.282   2.302   2.305   2.318
  2.331   2.371   2.385   2.393   2.412   2.448   2.458   2.465
  2.476   2.492   2.496   2.525   2.538   2.574   2.718   2.731
  2.919   2.920   3.155   3.170   3.201   3.270   3.458   3.489
  3.609   3.713   3.718   3.737   3.757   3.767   3.786   3.810
  3.823   3.838   4.006   4.024   4.036   4.060   4.069   4.079
  4.092   4.119   4.125   4.145   4.147   4.169   4.172   4.175
  4.191   4.197   4.201   4.216   4.230   4.239   4.246   4.254
  4.264   4.266   4.283   4.294   4.301   4.309   4.319   4.331
  4.356   4.381   4.386   4.403   4.424   4.445   4.465   4.469
  4.496   4.505   4.512   4.522   4.528   4.561   4.568   4.583
  4.592   4.611   4.624   4.635   4.664   4.700   4.725   4.728
  4.754   4.764   4.773   4.804   4.821   4.824   4.834   4.840
  4.853   4.861   4.879   4.895   4.961   4.984   5.003   5.038
  5.083   5.112   5.133   5.150   5.154   5.162   5.192   5.201
  5.208   5.213   5.247   5.265   5.333   5.345   5.350   5.356
  5.444   5.463   5.523   5.527   5.593   5.599   5.917   5.938
  5.965   5.969   6.055   6.066   6.192   6.197   6.197   6.198
  6.495   6.503   6.630   6.631   6.742   6.747   7.763   7.765
  9.041   9.326  16.354  16.362
 --------------------------------------------------------------
 
          Ground-State Mulliken Net Atomic Charges

     Atom                 Charge (a.u.)
  ----------------------------------------
      1 Si                    1.255377
      2 H                    -0.302257
      3 H                    -0.226103
      4 H                    -0.261243
      5 N                    -0.697013
      6 H                     0.133365
      7 H                     0.109420
      8 Si                    1.209805
      9 H                    -0.315370
     10 H                    -0.255562
     11 H                    -0.226657
     12 N                    -0.666198
     13 H                     0.111251
     14 H                     0.131186
  ----------------------------------------
  Sum of atomic charges =    -0.000000

 -----------------------------------------------------------------
                    Cartesian Multipole Moments
 -----------------------------------------------------------------
    Charge (ESU x 10^10)
                -0.0000
    Dipole Moment (Debye)
         X       0.1689      Y      -0.1762      Z      -0.2187
       Tot       0.3277
    Quadrupole Moments (Debye-Ang)
        XX     -32.2356     XY      -1.3453     YY     -43.1915
        XZ       6.0998     YZ       3.0740     ZZ     -47.2691
    Octopole Moments (Debye-Ang^2)
       XXX       7.0447    XXY      -0.3401    XYY      -2.4281
       YYY      -0.9392    XXZ      -6.7367    XYZ       2.9157
       YYZ      -1.3540    XZZ       0.9809    YZZ       0.0911
       ZZZ       0.1461
    Hexadecapole Moments (Debye-Ang^3)
      XXXX   -1232.2086   XXXY     -31.8575   XXYY    -240.4828
      XYYY      14.7533   YYYY    -120.6037   XXXZ      77.9269
      XXYZ      39.4879   XYYZ       9.8478   YYYZ       4.3133
      XXZZ    -295.1188   XYZZ       5.6438   YYZZ     -39.6020
      XZZZ       2.7332   YZZZ       4.7732   ZZZZ    -107.0743
 -----------------------------------------------------------------
Archival summary:
1\1\gm4.localdomain\SP\MP2\BasisUnspecified\i2210\xuedong\WedJul319:53:462019WedJul319:53:462019\0\\#,MP2,BasisUnspecified,\\0,1\Si\H,1,1.47755\H,1,1.47948,2,110.628\H,1,1.48525,2,107.811,3,-116.983,0\N,1,1.73233,2,107.477,3,117.153,0\H,5,1.0073,1,118.646,2,-172.556,0\H,5,1.00732,1,118.4,2,50.492,0\H,3,2.57451,1,78.9173,2,-55.9407,0\Si,8,1.47919,3,80.0193,1,-160.346,0\H,9,1.47783,8,110.487,3,57.9037,0\H,9,1.48505,8,107.454,3,-59.3469,0\N,9,1.7326,8,107.458,3,175.098,0\H,12,1.00743,9,118.409,8,-170.761,0\H,12,1.00745,9,118.42,8,52.7231,0\\HF=-692.695789\MP2=-693.422373\\@

 Total job time:  411.84s(wall), 2442.77s(cpu) 
 Wed Jul  3 19:53:46 2019

        *************************************************************
        *                                                           *
        *  Thank you very much for using Q-Chem.  Have a nice day.  *
        *                                                           *
        *************************************************************



Running Job 2 of 3 ../qm_inp/SiH3NH2_SiH3NH2_con3.090.qcinp
qchem ../qm_inp/SiH3NH2_SiH3NH2_con3.090.qcinp_17445.1 /scratch/xuedong/qchem17445/ 1
/home/qwang/software/qchem5.1.2/exe/qcprog.exe_s ../qm_inp/SiH3NH2_SiH3NH2_con3.090.qcinp_17445.1 /scratch/xuedong/qchem17445/
Check license passed

                  Welcome to Q-Chem
     A Quantum Leap Into The Future Of Chemistry


 Q-Chem 5.1, Q-Chem, Inc., Pleasanton, CA (2018)

 Yihan Shao,  Zhengting Gan,  E. Epifanovsky,  A. T. B. Gilbert,  M. Wormit,  
 J. Kussmann,  A. W. Lange,  A. Behn,  Jia Deng,  Xintian Feng,  D. Ghosh,  
 M. Goldey,  P. R. Horn,  L. D. Jacobson,  I. Kaliman,  T. Kus,  A. Landau,  
 Jie Liu,  E. I. Proynov,  R. M. Richard,  R. P. Steele,  E. J. Sundstrom,  
 H. L. Woodcock III,  P. M. Zimmerman,  D. Zuev,  B. Albrecht,  E. Alguire,  
 S. A. Baeppler,  D. Barton,  Z. Benda,  Y. A. Bernard,  E. J. Berquist,  
 K. B. Bravaya,  H. Burton,  D. Casanova,  Chun-Min Chang,  Yunqing Chen,  
 A. Chien,  K. D. Closser,  M. P. Coons,  S. Coriani,  S. Dasgupta,  
 A. L. Dempwolff,  M. Diedenhofen,  Hainam Do,  R. G. Edgar,  Po-Tung Fang,  
 S. Faraji,  S. Fatehi,  Qingguo Feng,  K. D. Fenk,  J. Fosso-Tande,  
 J. Gayvert,  Qinghui Ge,  A. Ghysels,  G. Gidofalvi,  J. Gomes,  
 J. Gonthier,  A. Gunina,  D. Hait,  M. W. D. Hanson-Heine,  
 P. H. P. Harbach,  A. W. Hauser,  J. E. Herr,  E. G. Hohenstein,  
 Z. C. Holden,  Kerwin Hui,  B. C. Huynh,  T.-C. Jagau,  Hyunjun Ji,  
 B. Kaduk,  K. Khistyaev,  Jaehoon Kim,  P. Klunzinger,  K. Koh,  
 D. Kosenkov,  L. Koulias,  T. Kowalczyk,  C. M. Krauter,  A. Kunitsa,  
 Ka Un Lao,  A. Laurent,  K. V. Lawler,  Joonho Lee,  D. Lefrancois,  
 S. Lehtola,  D. S. Levine,  Yi-Pei Li,  You-Sheng Lin,  Fenglai Liu,  
 E. Livshits,  A. Luenser,  P. Manohar,  E. Mansoor,  S. F. Manzer,  
 Shan-Ping Mao,  Yuezhi Mao,  N. Mardirossian,  A. V. Marenich,  
 T. Markovich,  L. A. Martinez-Martinez,  S. A. Maurer,  N. J. Mayhall,  
 S. C. McKenzie,  J.-M. Mewes,  A. F. Morrison,  J. W. Mullinax,  K. Nanda,  
 T. S. Nguyen-Beck,  R. Olivares-Amaya,  J. A. Parkhill,  T. M. Perrine,  
 F. Plasser,  P. Pokhilko,  S. Prager,  A. Prociuk,  E. Ramos,  D. R. Rehn,  
 F. Rob,  M. Schneider,  N. Sergueev,  S. M. Sharada,  S. Sharma,  
 D. W. Small,  T. Stauch,  T. Stein,  Yu-Chuan Su,  A. J. W. Thom,  
 A. Tkatchenko,  T. Tsuchimochi,  N. M. Tubman,  L. Vogt,  M. L. Vidal,  
 O. Vydrov,  M. A. Watson,  J. Wenzel,  M. de Wergifosse,  T. A. Wesolowski,  
 A. White,  J. Witte,  A. Yamada,  Jun Yang,  K. Yao,  S. Yeganeh,  
 S. R. Yost,  Zhi-Qiang You,  A. Zech,  Igor Ying Zhang,  Xing Zhang,  
 Yan Zhao,  Ying Zhu,  B. R. Brooks,  G. K. L. Chan,  C. J. Cramer,  
 M. S. Gordon,  W. J. Hehre,  A. Klamt,  M. W. Schmidt,  C. D. Sherrill,  
 D. G. Truhlar,  A. Aspuru-Guzik,  R. Baer,  A. T. Bell,  N. A. Besley,  
 Jeng-Da Chai,  A. E. DePrince, III,  R. A. DiStasio Jr.,  A. Dreuw,  
 B. D. Dunietz,  T. R. Furlani,  Chao-Ping Hsu,  Yousung Jung,  Jing Kong,  
 D. S. Lambrecht,  WanZhen Liang,  C. Ochsenfeld,  V. A. Rassolov,  
 L. V. Slipchenko,  J. E. Subotnik,  T. Van Voorhis,  J. M. Herbert,  
 A. I. Krylov,  P. M. W. Gill,  M. Head-Gordon

 Contributors to earlier versions of Q-Chem not listed above: 
 R. D. Adamson,  B. Austin,  J. Baker,  G. J. O. Beran,  K. Brandhorst,  
 S. T. Brown,  E. F. C. Byrd,  A. K. Chakraborty,  C.-L. Cheng,  
 Siu Hung Chien,  D. M. Chipman,  D. L. Crittenden,  H. Dachsel,  
 R. J. Doerksen,  A. D. Dutoi,  L. Fusti-Molnar,  W. A. Goddard III,  
 A. Golubeva-Zadorozhnaya,  S. R. Gwaltney,  G. Hawkins,  A. Heyden,  
 S. Hirata,  G. Kedziora,  F. J. Keil,  C. Kelley,  Jihan Kim,  R. A. King,  
 R. Z. Khaliullin,  P. P. Korambath,  W. Kurlancheek,  A. M. Lee,  M. S. Lee,  
 S. V. Levchenko,  Ching Yeh Lin,  D. Liotard,  R. C. Lochan,  I. Lotan,  
 P. E. Maslen,  N. Nair,  D. P. O'Neill,  D. Neuhauser,  E. Neuscamman,  
 C. M. Oana,  R. Olson,  B. Peters,  R. Peverati,  P. A. Pieniazek,  
 Y. M. Rhee,  J. Ritchie,  M. A. Rohrdanz,  E. Rosta,  N. J. Russ,  
 H. F. Schaefer III,  N. E. Schultz,  N. Shenvi,  A. C. Simmonett,  A. Sodt,  
 D. Stuck,  K. S. Thanthiriwatte,  V. Vanovschi,  Tao Wang,  A. Warshel,  
 C. F. Williams,  Q. Wu,  X. Xu,  W. Zhang

 Please cite Q-Chem as follows:
 Y. Shao et al., Mol. Phys. 113, 184-215 (2015)
 DOI: 10.1080/00268976.2014.952696

 Q-Chem 5.1.2 for Intel X86 EM64T Linux

 Parts of Q-Chem use Armadillo 8.300.2 (Tropical Shenanigans).
 http://arma.sourceforge.net/

 Q-Chem begins on Wed Jul  3 19:53:46 2019  

Host: 
0

     Scratch files written to /scratch/xuedong/qchem17445//
 Dec218 |scratch|qcdevops|jenkins|workspace|build_RNUM 6581   
Processing $rem in /home/qwang/software/qchem5.1.2/config/preferences.
 MEM_TOTAL  4000 
Core orbitals will be frozen
Input Ideriv = 1
Curr. Ideriv = -1
Max.  Ideriv = 1

Checking the input file for inconsistencies... 	...done.

--------------------------------------------------------------
User input:
--------------------------------------------------------------

$molecule
0 1
Si     1.924810978     0.221250999     0.126279543
H     1.412655312     0.307098559     1.517792385
H     1.133853934    -0.817922695    -0.568974842
H     1.726171862     1.539629336    -0.510559482
N     3.598001176    -0.193061537    -0.046238154
H     3.898337608    -1.114121400     0.229631138
H     4.290301474     0.485203856     0.228290528
@Si   -1.532378075    -0.325796447    -0.188045311
@H    -1.299570052    -0.768501115    -1.586325306
@H    -1.107709524    -1.422207205     0.707239783
@H    -0.704442940     0.878640573     0.039682003
@N    -3.166365218     0.082117149     0.218893464
@H    -3.849047776    -0.657594850     0.259887193
@H    -3.577393589     0.897263996    -0.207181056
$end

$rem
BASIS = aug-cc-pVTZ
JOB_TYPE  =  SP
METHOD  =  MP2
SCF_MAX_CYCLES  =  200
$end

--------------------------------------------------------------
 ----------------------------------------------------------------
             Standard Nuclear Orientation (Angstroms)
    I     Atom           X                Y                Z
 ----------------------------------------------------------------
    1      Si      1.9248109780     0.2212509990     0.1262795430
    2      H       1.4126553120     0.3070985590     1.5177923850
    3      H       1.1338539340    -0.8179226950    -0.5689748420
    4      H       1.7261718620     1.5396293360    -0.5105594820
    5      N       3.5980011760    -0.1930615370    -0.0462381540
    6      H       3.8983376080    -1.1141214000     0.2296311380
    7      H       4.2903014740     0.4852038560     0.2282905280
    8      GH     -1.5323780750    -0.3257964470    -0.1880453110
    9      GH     -1.2995700520    -0.7685011150    -1.5863253060
   10      GH     -1.1077095240    -1.4222072050     0.7072397830
   11      GH     -0.7044429400     0.8786405730     0.0396820030
   12      GH     -3.1663652180     0.0821171490     0.2188934640
   13      GH     -3.8490477760    -0.6575948500     0.2598871930
   14      GH     -3.5773935890     0.8972639960    -0.2071810560
 ----------------------------------------------------------------
 Nuclear Repulsion Energy =    64.7143342273 hartrees
 There are       13 alpha and       13 beta electrons
 Requested basis set is aug-cc-pVTZ
 There are 150 shells and 422 basis functions

 Total QAlloc Memory Limit   4000 MB
 Mega-Array Size       188 MB
 MEM_STATIC part       192 MB

                       Distance Matrix (Angstroms)
             Si(  1)   H (  2)   H (  3)   H (  4)   N (  5)   H (  6)
   H (  2)  1.485255
   H (  3)  1.479484  2.387048
   H (  4)  1.477546  2.394084  2.431523
   N (  5)  1.732334  2.733512  2.595328  2.592597
   H (  6)  2.385101  3.139720  2.892728  3.508358  1.007302
   H (  7)  2.382357  3.158383  3.506698  2.869229  1.007318  1.646657
   GH(  8)  3.514288  3.461742  2.737899  3.768551  5.134055  5.503506
   GH(  9)  3.782758  4.260121  2.637991  3.954725  5.166159  5.516828
   GH( 10)  3.497806  3.162235  2.649243  4.276259  4.921610  5.038207
   GH( 11)  2.711575  2.644537  2.574515  2.578286  4.434744  5.019240
   GH( 12)  5.093919  4.764996  4.463484  5.156875  6.775151  7.165272
   GH( 13)  5.841889  5.495314  5.053912  6.041892  7.467800  7.760883
   GH( 14)  5.553597  5.312666  5.026790  5.350932  7.259546  7.753904
             H (  7)   GH(  8)   GH(  9)   GH( 10)   GH( 11)   GH( 12)
   GH(  8)  5.893611
   GH(  9)  6.009265  1.485050
   GH( 10)  5.745096  1.477835  2.392610
   GH( 11)  5.013765  1.479191  2.389802  2.429436
   GH( 12)  7.467560  1.732601  2.732634  2.596062  2.593767
   GH( 13)  8.219245  2.382791  3.149704  2.880919  3.506715  1.007427
   GH( 14)  7.890504  2.382925  3.140906  3.509338  2.883597  1.007446
             GH( 13)
   GH( 14)  1.646066
 
 A cutoff of  1.0D-08 yielded   9457 shell pairs
 There are     72261 function pairs (     92331 Cartesian)
 
 -------------------------------------------------------
 OpenMP Integral Computing Module                       
 Release: version 1.0, May 2013, Q-Chem Inc. Pittsburgh 
 -------------------------------------------------------
 Integral Job Info:
 Integral job number is                      11
 Integral operator is                         1
 short-range coefficients                     0
 long-range coefficients              100000000
 Omega coefficients                           0
 if combine SR and LR in K                    0
 Integral screening is                        0
 Integral computing path is                   2
 max size of driver memory is            800000
 size of driver memory is                776718
 size of scratch memory is             29531563
 max col of scratch BK array              10000
 max len of scratch array in speh3          662
 max len of scratch index in speh4           32
 max int batch size is                      520
 min int batch size is                       52
 fixed nKL is                                31
 max L of basis functions is                  3
 order of int derivative is                   0
 number of shells is                        150
 number of basis is                         478
 number of cartesian basis is               478
 number of contracted shell pairs          9457
 number of primitive shell pairs          28028
 maxK2 (contraction) of shell pair          169
 max number of K2 of shell pair               1
 max number of CS2 of shell pair           1709
 max number of PS2 of shell pair           2730
 mem total for path MDJ                  731244
 -------------------------------------------------------
 Smallest overlap matrix eigenvalue = 1.16E-05

 Q-Chem warning in module stvman/mkSTV.C, line 306:

 Overlap eigenvalue is smaller than square root of threshold
 Use THRESH >= 12 to get rid of this warning


 Scale SEOQF with 1.000000e-01/1.000000e-01/1.000000e-01

 Standard Electronic Orientation quadrupole field applied
 Nucleus-field energy     =     0.0000000066 hartrees
 Guess from superposition of atomic densities
 Warning:  Energy on first SCF cycle will be non-variational
 SAD guess density has 26.000000 electrons

 -----------------------------------------------------------------------
  General SCF calculation program by
  Eric Jon Sundstrom, Paul Horn, Yuezhi Mao, Dmitri Zuev, Alec White,
  David Stuck, Shaama M.S., Shane Yost, Joonho Lee, David Small,
  Daniel Levine, Susi Lehtola, Hugh Burton, Evgeny Epifanovsky
 -----------------------------------------------------------------------
 Hartree-Fock
 using 6 threads for integral computing
 -------------------------------------------------------
 OpenMP Integral computing Module                
 Release: version 1.0, May 2013, Q-Chem Inc. Pittsburgh 
 -------------------------------------------------------
 A restricted SCF calculation will be
 performed using DIIS
 SCF converges when DIIS error is below 1.0e-05
 ---------------------------------------
  Cycle       Energy         DIIS error
 ---------------------------------------
    1    -346.4444446429      1.19e-02  
    2    -346.3136892210      1.17e-03  
    3    -346.3443092390      5.50e-04  
    4    -346.3502904844      1.37e-04  
    5    -346.3508992475      1.80e-05  
    6    -346.3509162136      4.33e-06  Convergence criterion met
 ---------------------------------------
 SCF time:   CPU 368.00s  wall 62.00s 
 SCF   energy in the final basis set =     -346.3509162136
 Total energy in the final basis set =     -346.3509162136
 
 Components of the MP2 correlation energy:
        aaaa  correlation energy =        -0.0353306483 au
        abab  correlation energy =        -0.2893779442 au
        bbbb  correlation energy =        -0.0353306483 au
        non-Brillouin singles    =        -0.0000000000 au

 Total  MP2   correlation energy =                    -0.36003924 au
        MP2         total energy =                  -346.71095545 au
 
 --------------------------------------------------------------
 
                    Orbital Energies (a.u.)
 --------------------------------------------------------------
 
 Alpha MOs
 -- Occupied --
-68.779 -15.538  -6.125  -4.231  -4.231  -4.231  -1.137  -0.721
 -0.657  -0.554  -0.492  -0.476  -0.403
 -- Virtual --
  0.024   0.029   0.041   0.049   0.049   0.052   0.065   0.067
  0.068   0.073   0.077   0.088   0.091   0.093   0.102   0.107
  0.118   0.129   0.143   0.147   0.153   0.158   0.163   0.167
  0.172   0.174   0.179   0.194   0.196   0.208   0.213   0.218
  0.226   0.233   0.244   0.246   0.250   0.262   0.270   0.279
  0.283   0.288   0.299   0.304   0.310   0.315   0.322   0.335
  0.339   0.344   0.346   0.355   0.355   0.363   0.372   0.374
  0.378   0.383   0.391   0.391   0.405   0.410   0.416   0.422
  0.431   0.437   0.447   0.448   0.458   0.460   0.467   0.475
  0.479   0.481   0.497   0.502   0.511   0.519   0.526   0.542
  0.551   0.567   0.575   0.589   0.603   0.616   0.620   0.631
  0.641   0.649   0.654   0.666   0.673   0.676   0.688   0.693
  0.702   0.708   0.721   0.733   0.740   0.742   0.751   0.759
  0.773   0.780   0.787   0.792   0.810   0.826   0.832   0.836
  0.839   0.852   0.869   0.884   0.887   0.904   0.928   0.931
  0.938   0.952   0.965   0.969   0.983   0.984   0.991   0.999
  1.018   1.023   1.040   1.044   1.048   1.055   1.061   1.072
  1.084   1.089   1.096   1.102   1.123   1.127   1.130   1.139
  1.142   1.152   1.157   1.166   1.172   1.185   1.193   1.199
  1.208   1.212   1.218   1.227   1.237   1.238   1.246   1.255
  1.266   1.272   1.283   1.295   1.304   1.311   1.324   1.329
  1.352   1.356   1.360   1.370   1.378   1.384   1.398   1.405
  1.415   1.424   1.432   1.445   1.449   1.457   1.472   1.483
  1.493   1.498   1.524   1.532   1.546   1.551   1.552   1.563
  1.571   1.572   1.589   1.603   1.616   1.621   1.642   1.646
  1.675   1.692   1.707   1.709   1.725   1.730   1.751   1.769
  1.777   1.784   1.821   1.836   1.847   1.863   1.890   1.906
  1.914   1.933   1.954   1.968   1.976   1.981   1.989   2.018
  2.043   2.045   2.064   2.067   2.086   2.099   2.120   2.137
  2.172   2.181   2.186   2.202   2.221   2.241   2.245   2.262
  2.297   2.301   2.302   2.343   2.371   2.371   2.393   2.402
  2.426   2.447   2.466   2.492   2.498   2.526   2.545   2.574
  2.580   2.624   2.703   2.724   2.746   2.825   2.855   2.868
  2.881   2.915   2.994   3.017   3.090   3.129   3.144   3.169
  3.245   3.281   3.477   3.556   3.694   3.726   3.742   3.770
  3.792   3.818   3.855   4.011   4.037   4.069   4.111   4.124
  4.155   4.171   4.172   4.187   4.199   4.223   4.236   4.253
  4.273   4.287   4.299   4.315   4.332   4.341   4.349   4.374
  4.393   4.399   4.413   4.429   4.454   4.465   4.484   4.495
  4.499   4.516   4.537   4.540   4.554   4.576   4.581   4.592
  4.607   4.619   4.631   4.642   4.665   4.671   4.699   4.708
  4.739   4.751   4.761   4.767   4.814   4.822   4.835   4.842
  4.862   4.884   4.951   4.961   4.996   5.009   5.043   5.050
  5.085   5.110   5.118   5.142   5.154   5.173   5.196   5.201
  5.208   5.228   5.238   5.296   5.310   5.331   5.349   5.372
  5.402   5.411   5.414   5.452   5.483   5.523   5.553   5.600
  5.633   5.763   5.781   5.923   5.964   5.987   6.047   6.054
  6.123   6.192   6.194   6.200   6.241   6.254   6.380   6.494
  6.626   6.634   6.648   6.743   6.836   7.433   7.510   7.521
  7.613   7.762   7.832   8.118   9.147   9.297   9.376  10.124
 10.963  11.999  15.334  16.357  20.416  20.515  21.388  56.947
107.058
 --------------------------------------------------------------
 
          Ground-State Mulliken Net Atomic Charges

     Atom                 Charge (a.u.)
  ----------------------------------------
      1 Si                    1.260358
      2 H                    -0.313081
      3 H                    -0.187808
      4 H                    -0.267374
      5 N                    -0.693081
      6 H                     0.134576
      7 H                     0.109313
      8 GH                   -0.004601
      9 GH                    0.001424
     10 GH                    0.002880
     11 GH                   -0.033199
     12 GH                   -0.008192
     13 GH                   -0.000389
     14 GH                   -0.000827
  ----------------------------------------
  Sum of atomic charges =    -0.000000

 -----------------------------------------------------------------
                    Cartesian Multipole Moments
 -----------------------------------------------------------------
    Charge (ESU x 10^10)
                -0.0000
    Dipole Moment (Debye)
         X       0.8926      Y      -0.2063      Z       0.8492
       Tot       1.2492
    Quadrupole Moments (Debye-Ang)
        XX     -16.2200     XY      -0.5089     YY     -20.8224
        XZ       3.9912     YZ      -0.3965     ZZ     -24.1247
    Octopole Moments (Debye-Ang^2)
       XXX    -127.0493    XXY      -2.2593    XYY     -45.7931
       YYY      -9.9136    XXZ      15.0124    XYZ      -0.9942
       YYZ      -0.2948    XZZ     -58.0740    YZZ      -2.3343
       ZZZ      -7.6294
    Hexadecapole Moments (Debye-Ang^3)
      XXXX    -731.0504   XXXY       0.2214   XXYY    -127.8557
      XYYY     -15.2483   YYYY     -57.6281   XXXZ      59.6947
      XXYZ      -3.7050   XYYZ       1.2944   YYYZ      -1.4929
      XXZZ    -174.8343   XYZZ      -1.3301   YYZZ     -18.5404
      XZZZ     -12.2770   YZZZ      -2.2073   ZZZZ     -54.6896
 -----------------------------------------------------------------
Archival summary:
1\1\gm4.localdomain\SP\MP2\BasisUnspecified\i115h7\xuedong\WedJul319:57:412019WedJul319:57:412019\0\\#,MP2,BasisUnspecified,\\0,1\Si\H,1,1.47755\H,1,1.47948,2,110.628\H,1,1.48525,2,107.811,3,-116.983,0\N,1,1.73233,2,107.477,3,117.153,0\H,5,1.0073,1,118.646,2,-172.556,0\H,5,1.00732,1,118.4,2,50.492,0\Gh,3,2.57451,1,78.9173,2,-55.9407,0\Gh,8,1.47919,3,80.0193,1,-160.346,0\Gh,9,1.47783,8,110.487,3,57.9037,0\Gh,9,1.48505,8,107.454,3,-59.3469,0\Gh,9,1.7326,8,107.458,3,175.098,0\Gh,12,1.00743,9,118.409,8,-170.761,0\Gh,12,1.00745,9,118.42,8,52.7231,0\\HF=-346.350916\MP2=-346.710955\\@

 Total job time:  234.98s(wall), 1400.49s(cpu) 
 Wed Jul  3 19:57:41 2019

        *************************************************************
        *                                                           *
        *  Thank you very much for using Q-Chem.  Have a nice day.  *
        *                                                           *
        *************************************************************



Running Job 3 of 3 ../qm_inp/SiH3NH2_SiH3NH2_con3.090.qcinp
qchem ../qm_inp/SiH3NH2_SiH3NH2_con3.090.qcinp_17445.2 /scratch/xuedong/qchem17445/ 1
/home/qwang/software/qchem5.1.2/exe/qcprog.exe_s ../qm_inp/SiH3NH2_SiH3NH2_con3.090.qcinp_17445.2 /scratch/xuedong/qchem17445/
Check license passed

                  Welcome to Q-Chem
     A Quantum Leap Into The Future Of Chemistry


 Q-Chem 5.1, Q-Chem, Inc., Pleasanton, CA (2018)

 Yihan Shao,  Zhengting Gan,  E. Epifanovsky,  A. T. B. Gilbert,  M. Wormit,  
 J. Kussmann,  A. W. Lange,  A. Behn,  Jia Deng,  Xintian Feng,  D. Ghosh,  
 M. Goldey,  P. R. Horn,  L. D. Jacobson,  I. Kaliman,  T. Kus,  A. Landau,  
 Jie Liu,  E. I. Proynov,  R. M. Richard,  R. P. Steele,  E. J. Sundstrom,  
 H. L. Woodcock III,  P. M. Zimmerman,  D. Zuev,  B. Albrecht,  E. Alguire,  
 S. A. Baeppler,  D. Barton,  Z. Benda,  Y. A. Bernard,  E. J. Berquist,  
 K. B. Bravaya,  H. Burton,  D. Casanova,  Chun-Min Chang,  Yunqing Chen,  
 A. Chien,  K. D. Closser,  M. P. Coons,  S. Coriani,  S. Dasgupta,  
 A. L. Dempwolff,  M. Diedenhofen,  Hainam Do,  R. G. Edgar,  Po-Tung Fang,  
 S. Faraji,  S. Fatehi,  Qingguo Feng,  K. D. Fenk,  J. Fosso-Tande,  
 J. Gayvert,  Qinghui Ge,  A. Ghysels,  G. Gidofalvi,  J. Gomes,  
 J. Gonthier,  A. Gunina,  D. Hait,  M. W. D. Hanson-Heine,  
 P. H. P. Harbach,  A. W. Hauser,  J. E. Herr,  E. G. Hohenstein,  
 Z. C. Holden,  Kerwin Hui,  B. C. Huynh,  T.-C. Jagau,  Hyunjun Ji,  
 B. Kaduk,  K. Khistyaev,  Jaehoon Kim,  P. Klunzinger,  K. Koh,  
 D. Kosenkov,  L. Koulias,  T. Kowalczyk,  C. M. Krauter,  A. Kunitsa,  
 Ka Un Lao,  A. Laurent,  K. V. Lawler,  Joonho Lee,  D. Lefrancois,  
 S. Lehtola,  D. S. Levine,  Yi-Pei Li,  You-Sheng Lin,  Fenglai Liu,  
 E. Livshits,  A. Luenser,  P. Manohar,  E. Mansoor,  S. F. Manzer,  
 Shan-Ping Mao,  Yuezhi Mao,  N. Mardirossian,  A. V. Marenich,  
 T. Markovich,  L. A. Martinez-Martinez,  S. A. Maurer,  N. J. Mayhall,  
 S. C. McKenzie,  J.-M. Mewes,  A. F. Morrison,  J. W. Mullinax,  K. Nanda,  
 T. S. Nguyen-Beck,  R. Olivares-Amaya,  J. A. Parkhill,  T. M. Perrine,  
 F. Plasser,  P. Pokhilko,  S. Prager,  A. Prociuk,  E. Ramos,  D. R. Rehn,  
 F. Rob,  M. Schneider,  N. Sergueev,  S. M. Sharada,  S. Sharma,  
 D. W. Small,  T. Stauch,  T. Stein,  Yu-Chuan Su,  A. J. W. Thom,  
 A. Tkatchenko,  T. Tsuchimochi,  N. M. Tubman,  L. Vogt,  M. L. Vidal,  
 O. Vydrov,  M. A. Watson,  J. Wenzel,  M. de Wergifosse,  T. A. Wesolowski,  
 A. White,  J. Witte,  A. Yamada,  Jun Yang,  K. Yao,  S. Yeganeh,  
 S. R. Yost,  Zhi-Qiang You,  A. Zech,  Igor Ying Zhang,  Xing Zhang,  
 Yan Zhao,  Ying Zhu,  B. R. Brooks,  G. K. L. Chan,  C. J. Cramer,  
 M. S. Gordon,  W. J. Hehre,  A. Klamt,  M. W. Schmidt,  C. D. Sherrill,  
 D. G. Truhlar,  A. Aspuru-Guzik,  R. Baer,  A. T. Bell,  N. A. Besley,  
 Jeng-Da Chai,  A. E. DePrince, III,  R. A. DiStasio Jr.,  A. Dreuw,  
 B. D. Dunietz,  T. R. Furlani,  Chao-Ping Hsu,  Yousung Jung,  Jing Kong,  
 D. S. Lambrecht,  WanZhen Liang,  C. Ochsenfeld,  V. A. Rassolov,  
 L. V. Slipchenko,  J. E. Subotnik,  T. Van Voorhis,  J. M. Herbert,  
 A. I. Krylov,  P. M. W. Gill,  M. Head-Gordon

 Contributors to earlier versions of Q-Chem not listed above: 
 R. D. Adamson,  B. Austin,  J. Baker,  G. J. O. Beran,  K. Brandhorst,  
 S. T. Brown,  E. F. C. Byrd,  A. K. Chakraborty,  C.-L. Cheng,  
 Siu Hung Chien,  D. M. Chipman,  D. L. Crittenden,  H. Dachsel,  
 R. J. Doerksen,  A. D. Dutoi,  L. Fusti-Molnar,  W. A. Goddard III,  
 A. Golubeva-Zadorozhnaya,  S. R. Gwaltney,  G. Hawkins,  A. Heyden,  
 S. Hirata,  G. Kedziora,  F. J. Keil,  C. Kelley,  Jihan Kim,  R. A. King,  
 R. Z. Khaliullin,  P. P. Korambath,  W. Kurlancheek,  A. M. Lee,  M. S. Lee,  
 S. V. Levchenko,  Ching Yeh Lin,  D. Liotard,  R. C. Lochan,  I. Lotan,  
 P. E. Maslen,  N. Nair,  D. P. O'Neill,  D. Neuhauser,  E. Neuscamman,  
 C. M. Oana,  R. Olson,  B. Peters,  R. Peverati,  P. A. Pieniazek,  
 Y. M. Rhee,  J. Ritchie,  M. A. Rohrdanz,  E. Rosta,  N. J. Russ,  
 H. F. Schaefer III,  N. E. Schultz,  N. Shenvi,  A. C. Simmonett,  A. Sodt,  
 D. Stuck,  K. S. Thanthiriwatte,  V. Vanovschi,  Tao Wang,  A. Warshel,  
 C. F. Williams,  Q. Wu,  X. Xu,  W. Zhang

 Please cite Q-Chem as follows:
 Y. Shao et al., Mol. Phys. 113, 184-215 (2015)
 DOI: 10.1080/00268976.2014.952696

 Q-Chem 5.1.2 for Intel X86 EM64T Linux

 Parts of Q-Chem use Armadillo 8.300.2 (Tropical Shenanigans).
 http://arma.sourceforge.net/

 Q-Chem begins on Wed Jul  3 19:57:41 2019  

Host: 
0

     Scratch files written to /scratch/xuedong/qchem17445//
 Dec218 |scratch|qcdevops|jenkins|workspace|build_RNUM 6581   
Processing $rem in /home/qwang/software/qchem5.1.2/config/preferences.
 MEM_TOTAL  4000 
Core orbitals will be frozen
Input Ideriv = 1
Curr. Ideriv = -1
Max.  Ideriv = 1

Checking the input file for inconsistencies... 	...done.

--------------------------------------------------------------
User input:
--------------------------------------------------------------

$molecule
0 1
@Si     1.924810978     0.221250999     0.126279543
@H      1.412655312     0.307098559     1.517792385
@H      1.133853934    -0.817922695    -0.568974842
@H      1.726171862     1.539629336    -0.510559482
@N      3.598001176    -0.193061537    -0.046238154
@H      3.898337608    -1.114121400     0.229631138
@H      4.290301474     0.485203856     0.228290528
Si    -1.532378075    -0.325796447    -0.188045311
H     -1.299570052    -0.768501115    -1.586325306
H     -1.107709524    -1.422207205     0.707239783
H     -0.704442940     0.878640573     0.039682003
N     -3.166365218     0.082117149     0.218893464
H     -3.849047776    -0.657594850     0.259887193
H     -3.577393589     0.897263996    -0.207181056
$end

$rem
BASIS = aug-cc-pVTZ
JOB_TYPE  =  SP
METHOD  =  MP2
SCF_MAX_CYCLES  =  200
$end

--------------------------------------------------------------
 ----------------------------------------------------------------
             Standard Nuclear Orientation (Angstroms)
    I     Atom           X                Y                Z
 ----------------------------------------------------------------
    1      GH      1.9248109780     0.2212509990     0.1262795430
    2      GH      1.4126553120     0.3070985590     1.5177923850
    3      GH      1.1338539340    -0.8179226950    -0.5689748420
    4      GH      1.7261718620     1.5396293360    -0.5105594820
    5      GH      3.5980011760    -0.1930615370    -0.0462381540
    6      GH      3.8983376080    -1.1141214000     0.2296311380
    7      GH      4.2903014740     0.4852038560     0.2282905280
    8      Si     -1.5323780750    -0.3257964470    -0.1880453110
    9      H      -1.2995700520    -0.7685011150    -1.5863253060
   10      H      -1.1077095240    -1.4222072050     0.7072397830
   11      H      -0.7044429400     0.8786405730     0.0396820030
   12      N      -3.1663652180     0.0821171490     0.2188934640
   13      H      -3.8490477760    -0.6575948500     0.2598871930
   14      H      -3.5773935890     0.8972639960    -0.2071810560
 ----------------------------------------------------------------
 Nuclear Repulsion Energy =    64.7115287340 hartrees
 There are       13 alpha and       13 beta electrons
 Requested basis set is aug-cc-pVTZ
 There are 150 shells and 422 basis functions

 Total QAlloc Memory Limit   4000 MB
 Mega-Array Size       188 MB
 MEM_STATIC part       192 MB

                       Distance Matrix (Angstroms)
             GH(  1)   GH(  2)   GH(  3)   GH(  4)   GH(  5)   GH(  6)
   GH(  2)  1.485255
   GH(  3)  1.479484  2.387048
   GH(  4)  1.477546  2.394084  2.431523
   GH(  5)  1.732334  2.733512  2.595328  2.592597
   GH(  6)  2.385101  3.139720  2.892728  3.508358  1.007302
   GH(  7)  2.382357  3.158383  3.506698  2.869229  1.007318  1.646657
   Si(  8)  3.514288  3.461742  2.737899  3.768551  5.134055  5.503506
   H (  9)  3.782758  4.260121  2.637991  3.954725  5.166159  5.516828
   H ( 10)  3.497806  3.162235  2.649243  4.276259  4.921610  5.038207
   H ( 11)  2.711575  2.644537  2.574515  2.578286  4.434744  5.019240
   N ( 12)  5.093919  4.764996  4.463484  5.156875  6.775151  7.165272
   H ( 13)  5.841889  5.495314  5.053912  6.041892  7.467800  7.760883
   H ( 14)  5.553597  5.312666  5.026790  5.350932  7.259546  7.753904
             GH(  7)   Si(  8)   H (  9)   H ( 10)   H ( 11)   N ( 12)
   Si(  8)  5.893611
   H (  9)  6.009265  1.485050
   H ( 10)  5.745096  1.477835  2.392610
   H ( 11)  5.013765  1.479191  2.389802  2.429436
   N ( 12)  7.467560  1.732601  2.732634  2.596062  2.593767
   H ( 13)  8.219245  2.382791  3.149704  2.880919  3.506715  1.007427
   H ( 14)  7.890504  2.382925  3.140906  3.509338  2.883597  1.007446
             H ( 13)
   H ( 14)  1.646066
 
 A cutoff of  1.0D-08 yielded   9457 shell pairs
 There are     72261 function pairs (     92331 Cartesian)
 
 -------------------------------------------------------
 OpenMP Integral Computing Module                       
 Release: version 1.0, May 2013, Q-Chem Inc. Pittsburgh 
 -------------------------------------------------------
 Integral Job Info:
 Integral job number is                      11
 Integral operator is                         1
 short-range coefficients                     0
 long-range coefficients              100000000
 Omega coefficients                           0
 if combine SR and LR in K                    0
 Integral screening is                        0
 Integral computing path is                   2
 max size of driver memory is            800000
 size of driver memory is                776718
 size of scratch memory is             29531563
 max col of scratch BK array              10000
 max len of scratch array in speh3          662
 max len of scratch index in speh4           32
 max int batch size is                      520
 min int batch size is                       52
 fixed nKL is                                31
 max L of basis functions is                  3
 order of int derivative is                   0
 number of shells is                        150
 number of basis is                         478
 number of cartesian basis is               478
 number of contracted shell pairs          9457
 number of primitive shell pairs          28028
 maxK2 (contraction) of shell pair          169
 max number of K2 of shell pair               1
 max number of CS2 of shell pair           1709
 max number of PS2 of shell pair           2730
 mem total for path MDJ                  731244
 -------------------------------------------------------
 Smallest overlap matrix eigenvalue = 1.16E-05

 Q-Chem warning in module stvman/mkSTV.C, line 306:

 Overlap eigenvalue is smaller than square root of threshold
 Use THRESH >= 12 to get rid of this warning


 Scale SEOQF with 1.000000e-01/1.000000e-01/1.000000e-01

 Standard Electronic Orientation quadrupole field applied
 Nucleus-field energy     =     0.0000000048 hartrees
 Guess from superposition of atomic densities
 Warning:  Energy on first SCF cycle will be non-variational
 SAD guess density has 26.000000 electrons

 -----------------------------------------------------------------------
  General SCF calculation program by
  Eric Jon Sundstrom, Paul Horn, Yuezhi Mao, Dmitri Zuev, Alec White,
  David Stuck, Shaama M.S., Shane Yost, Joonho Lee, David Small,
  Daniel Levine, Susi Lehtola, Hugh Burton, Evgeny Epifanovsky
 -----------------------------------------------------------------------
 Hartree-Fock
 using 6 threads for integral computing
 -------------------------------------------------------
 OpenMP Integral computing Module                
 Release: version 1.0, May 2013, Q-Chem Inc. Pittsburgh 
 -------------------------------------------------------
 A restricted SCF calculation will be
 performed using DIIS
 SCF converges when DIIS error is below 1.0e-05
 ---------------------------------------
  Cycle       Energy         DIIS error
 ---------------------------------------
    1    -346.4442421764      1.19e-02  
    2    -346.3136659684      1.17e-03  
    3    -346.3442949703      5.50e-04  
    4    -346.3502762467      1.37e-04  
    5    -346.3508852098      1.81e-05  
    6    -346.3509022592      4.35e-06  Convergence criterion met
 ---------------------------------------
 SCF time:   CPU 367.46s  wall 62.00s 
 SCF   energy in the final basis set =     -346.3509022592
 Total energy in the final basis set =     -346.3509022592
 
 Components of the MP2 correlation energy:
        aaaa  correlation energy =        -0.0353320097 au
        abab  correlation energy =        -0.2893861506 au
        bbbb  correlation energy =        -0.0353320097 au
        non-Brillouin singles    =        -0.0000000000 au

 Total  MP2   correlation energy =                    -0.36005017 au
        MP2         total energy =                  -346.71095243 au
 
 --------------------------------------------------------------
 
                    Orbital Energies (a.u.)
 --------------------------------------------------------------
 
 Alpha MOs
 -- Occupied --
-68.779 -15.538  -6.125  -4.231  -4.231  -4.231  -1.137  -0.721
 -0.657  -0.554  -0.492  -0.475  -0.404
 -- Virtual --
  0.024   0.029   0.042   0.047   0.050   0.052   0.062   0.068
  0.068   0.075   0.078   0.087   0.090   0.093   0.104   0.107
  0.114   0.130   0.146   0.147   0.154   0.159   0.161   0.168
  0.173   0.178   0.179   0.188   0.194   0.209   0.210   0.217
  0.228   0.233   0.245   0.249   0.254   0.260   0.262   0.273
  0.285   0.294   0.304   0.309   0.314   0.317   0.326   0.331
  0.336   0.341   0.346   0.351   0.357   0.366   0.374   0.374
  0.376   0.384   0.390   0.390   0.401   0.409   0.419   0.420
  0.430   0.440   0.443   0.451   0.463   0.467   0.471   0.475
  0.479   0.481   0.493   0.496   0.507   0.517   0.518   0.541
  0.551   0.563   0.578   0.602   0.604   0.620   0.627   0.632
  0.642   0.649   0.652   0.663   0.670   0.681   0.689   0.695
  0.705   0.714   0.718   0.728   0.739   0.742   0.750   0.758
  0.772   0.776   0.784   0.789   0.807   0.814   0.826   0.834
  0.861   0.864   0.869   0.879   0.896   0.902   0.928   0.932
  0.945   0.946   0.956   0.971   0.982   0.985   1.000   1.009
  1.013   1.026   1.033   1.047   1.055   1.062   1.067   1.071
  1.079   1.085   1.092   1.107   1.112   1.125   1.128   1.134
  1.138   1.147   1.164   1.173   1.178   1.182   1.185   1.195
  1.200   1.205   1.216   1.219   1.234   1.239   1.248   1.264
  1.269   1.273   1.283   1.303   1.306   1.313   1.319   1.337
  1.343   1.353   1.362   1.368   1.378   1.394   1.401   1.409
  1.415   1.419   1.438   1.447   1.454   1.459   1.470   1.478
  1.494   1.500   1.514   1.523   1.535   1.546   1.557   1.570
  1.578   1.587   1.599   1.606   1.620   1.629   1.649   1.656
  1.673   1.688   1.690   1.708   1.728   1.733   1.757   1.759
  1.782   1.791   1.805   1.832   1.846   1.869   1.876   1.914
  1.917   1.945   1.948   1.968   1.970   1.988   2.002   2.010
  2.026   2.054   2.070   2.087   2.094   2.103   2.110   2.136
  2.155   2.174   2.180   2.188   2.211   2.242   2.250   2.263
  2.290   2.310   2.332   2.340   2.356   2.373   2.388   2.408
  2.436   2.443   2.462   2.488   2.507   2.527   2.531   2.565
  2.578   2.649   2.702   2.715   2.721   2.826   2.853   2.860
  2.875   2.921   2.992   3.025   3.094   3.132   3.149   3.173
  3.253   3.282   3.492   3.559   3.669   3.735   3.747   3.760
  3.778   3.811   3.862   4.011   4.030   4.071   4.119   4.130
  4.151   4.163   4.172   4.191   4.204   4.229   4.233   4.254
  4.258   4.283   4.294   4.311   4.325   4.348   4.353   4.380
  4.397   4.402   4.415   4.442   4.449   4.462   4.479   4.484
  4.521   4.521   4.535   4.541   4.552   4.572   4.579   4.590
  4.604   4.614   4.631   4.644   4.662   4.684   4.690   4.720
  4.738   4.754   4.759   4.780   4.818   4.822   4.843   4.853
  4.858   4.867   4.950   4.964   4.991   5.012   5.040   5.046
  5.074   5.106   5.123   5.141   5.143   5.173   5.196   5.209
  5.211   5.226   5.237   5.291   5.317   5.329   5.344   5.368
  5.387   5.404   5.436   5.457   5.491   5.524   5.542   5.594
  5.636   5.764   5.790   5.923   5.964   5.986   6.054   6.057
  6.116   6.184   6.194   6.198   6.236   6.283   6.378   6.502
  6.628   6.635   6.652   6.742   6.839   7.433   7.506   7.525
  7.613   7.761   7.830   8.119   9.214   9.296   9.375  10.127
 10.964  11.996  15.216  16.354  20.399  20.523  21.455  56.951
107.045
 --------------------------------------------------------------
 
          Ground-State Mulliken Net Atomic Charges

     Atom                 Charge (a.u.)
  ----------------------------------------
      1 GH                   -0.000363
      2 GH                    0.000496
      3 GH                   -0.025138
      4 GH                    0.009904
      5 GH                   -0.010777
      6 GH                   -0.000581
      7 GH                    0.000029
      8 Si                    1.216237
      9 H                    -0.317670
     10 H                    -0.263079
     11 H                    -0.189968
     12 N                    -0.662824
     13 H                     0.111747
     14 H                     0.131987
  ----------------------------------------
  Sum of atomic charges =    -0.000000

 -----------------------------------------------------------------
                    Cartesian Multipole Moments
 -----------------------------------------------------------------
    Charge (ESU x 10^10)
                -0.0000
    Dipole Moment (Debye)
         X      -1.0493      Y      -0.0343      Z      -0.6843
       Tot       1.2532
    Quadrupole Moments (Debye-Ang)
        XX     -15.7195     XY       0.4367     YY     -21.2059
        XZ       2.5176     YZ      -1.1236     ZZ     -24.3228
    Octopole Moments (Debye-Ang^2)
       XXX     100.8009    XXY       1.6137    XYY      38.0326
       YYY      15.1854    XXZ      -6.5857    XYZ       3.7919
       YYZ       1.0730    XZZ      49.3487    YZZ       5.8187
       ZZZ       6.6146
    Hexadecapole Moments (Debye-Ang^3)
      XXXX    -511.6686   XXXY      -4.1047   XXYY     -95.6449
      XYYY     -19.9959   YYYY     -62.4860   XXXZ      24.3400
      XXYZ     -13.8496   XYYZ       1.3545   YYYZ      -3.2777
      XXZZ    -134.3126   XYZZ      -7.0260   YYZZ     -20.7855
      XZZZ      -0.6496   YZZZ      -5.1194   ZZZZ     -59.6358
 -----------------------------------------------------------------
Archival summary:
1\1\gm4.localdomain\SP\MP2\BasisUnspecified\i115h7\xuedong\WedJul320:01:342019WedJul320:01:342019\0\\#,MP2,BasisUnspecified,\\0,1\Si\H,1,1.47783\H,1,1.47919,2,110.487\H,1,1.48505,2,107.71,3,117.093,0\N,1,1.7326,2,107.661,3,-117.069,0\H,5,1.00743,1,118.409,2,-51.7377,0\H,5,1.00745,1,118.42,2,171.747,0\Gh,3,2.57451,1,80.0193,2,57.9037,0\Gh,8,1.47948,3,78.9173,1,-160.346,0\Gh,9,1.47755,8,110.628,3,-55.9407,0\Gh,9,1.48525,8,107.249,3,61.3884,0\Gh,9,1.73233,8,107.552,3,-173.047,0\Gh,12,1.0073,9,118.646,8,-53.4135,0\Gh,12,1.00732,9,118.4,8,169.635,0\\HF=-346.350902\MP2=-346.710952\\@

 Total job time:  233.16s(wall), 1390.94s(cpu) 
 Wed Jul  3 20:01:34 2019

        *************************************************************
        *                                                           *
        *  Thank you very much for using Q-Chem.  Have a nice day.  *
        *                                                           *
        *************************************************************


