
Running Job 1 of 3 ../qm_inp/SiH3NH2_SiH3NH2_con1.200.qcinp
qchem ../qm_inp/SiH3NH2_SiH3NH2_con1.200.qcinp_16605.0 /scratch/xuedong/qchem16605/ 1
/home/qwang/software/qchem5.1.2/exe/qcprog.exe_s ../qm_inp/SiH3NH2_SiH3NH2_con1.200.qcinp_16605.0 /scratch/xuedong/qchem16605/
Check license passed

                  Welcome to Q-Chem
     A Quantum Leap Into The Future Of Chemistry


 Q-Chem 5.1, Q-Chem, Inc., Pleasanton, CA (2018)

 Yihan Shao,  Zhengting Gan,  E. Epifanovsky,  A. T. B. Gilbert,  M. Wormit,  
 J. Kussmann,  A. W. Lange,  A. Behn,  Jia Deng,  Xintian Feng,  D. Ghosh,  
 M. Goldey,  P. R. Horn,  L. D. Jacobson,  I. Kaliman,  T. Kus,  A. Landau,  
 Jie Liu,  E. I. Proynov,  R. M. Richard,  R. P. Steele,  E. J. Sundstrom,  
 H. L. Woodcock III,  P. M. Zimmerman,  D. Zuev,  B. Albrecht,  E. Alguire,  
 S. A. Baeppler,  D. Barton,  Z. Benda,  Y. A. Bernard,  E. J. Berquist,  
 K. B. Bravaya,  H. Burton,  D. Casanova,  Chun-Min Chang,  Yunqing Chen,  
 A. Chien,  K. D. Closser,  M. P. Coons,  S. Coriani,  S. Dasgupta,  
 A. L. Dempwolff,  M. Diedenhofen,  Hainam Do,  R. G. Edgar,  Po-Tung Fang,  
 S. Faraji,  S. Fatehi,  Qingguo Feng,  K. D. Fenk,  J. Fosso-Tande,  
 J. Gayvert,  Qinghui Ge,  A. Ghysels,  G. Gidofalvi,  J. Gomes,  
 J. Gonthier,  A. Gunina,  D. Hait,  M. W. D. Hanson-Heine,  
 P. H. P. Harbach,  A. W. Hauser,  J. E. Herr,  E. G. Hohenstein,  
 Z. C. Holden,  Kerwin Hui,  B. C. Huynh,  T.-C. Jagau,  Hyunjun Ji,  
 B. Kaduk,  K. Khistyaev,  Jaehoon Kim,  P. Klunzinger,  K. Koh,  
 D. Kosenkov,  L. Koulias,  T. Kowalczyk,  C. M. Krauter,  A. Kunitsa,  
 Ka Un Lao,  A. Laurent,  K. V. Lawler,  Joonho Lee,  D. Lefrancois,  
 S. Lehtola,  D. S. Levine,  Yi-Pei Li,  You-Sheng Lin,  Fenglai Liu,  
 E. Livshits,  A. Luenser,  P. Manohar,  E. Mansoor,  S. F. Manzer,  
 Shan-Ping Mao,  Yuezhi Mao,  N. Mardirossian,  A. V. Marenich,  
 T. Markovich,  L. A. Martinez-Martinez,  S. A. Maurer,  N. J. Mayhall,  
 S. C. McKenzie,  J.-M. Mewes,  A. F. Morrison,  J. W. Mullinax,  K. Nanda,  
 T. S. Nguyen-Beck,  R. Olivares-Amaya,  J. A. Parkhill,  T. M. Perrine,  
 F. Plasser,  P. Pokhilko,  S. Prager,  A. Prociuk,  E. Ramos,  D. R. Rehn,  
 F. Rob,  M. Schneider,  N. Sergueev,  S. M. Sharada,  S. Sharma,  
 D. W. Small,  T. Stauch,  T. Stein,  Yu-Chuan Su,  A. J. W. Thom,  
 A. Tkatchenko,  T. Tsuchimochi,  N. M. Tubman,  L. Vogt,  M. L. Vidal,  
 O. Vydrov,  M. A. Watson,  J. Wenzel,  M. de Wergifosse,  T. A. Wesolowski,  
 A. White,  J. Witte,  A. Yamada,  Jun Yang,  K. Yao,  S. Yeganeh,  
 S. R. Yost,  Zhi-Qiang You,  A. Zech,  Igor Ying Zhang,  Xing Zhang,  
 Yan Zhao,  Ying Zhu,  B. R. Brooks,  G. K. L. Chan,  C. J. Cramer,  
 M. S. Gordon,  W. J. Hehre,  A. Klamt,  M. W. Schmidt,  C. D. Sherrill,  
 D. G. Truhlar,  A. Aspuru-Guzik,  R. Baer,  A. T. Bell,  N. A. Besley,  
 Jeng-Da Chai,  A. E. DePrince, III,  R. A. DiStasio Jr.,  A. Dreuw,  
 B. D. Dunietz,  T. R. Furlani,  Chao-Ping Hsu,  Yousung Jung,  Jing Kong,  
 D. S. Lambrecht,  WanZhen Liang,  C. Ochsenfeld,  V. A. Rassolov,  
 L. V. Slipchenko,  J. E. Subotnik,  T. Van Voorhis,  J. M. Herbert,  
 A. I. Krylov,  P. M. W. Gill,  M. Head-Gordon

 Contributors to earlier versions of Q-Chem not listed above: 
 R. D. Adamson,  B. Austin,  J. Baker,  G. J. O. Beran,  K. Brandhorst,  
 S. T. Brown,  E. F. C. Byrd,  A. K. Chakraborty,  C.-L. Cheng,  
 Siu Hung Chien,  D. M. Chipman,  D. L. Crittenden,  H. Dachsel,  
 R. J. Doerksen,  A. D. Dutoi,  L. Fusti-Molnar,  W. A. Goddard III,  
 A. Golubeva-Zadorozhnaya,  S. R. Gwaltney,  G. Hawkins,  A. Heyden,  
 S. Hirata,  G. Kedziora,  F. J. Keil,  C. Kelley,  Jihan Kim,  R. A. King,  
 R. Z. Khaliullin,  P. P. Korambath,  W. Kurlancheek,  A. M. Lee,  M. S. Lee,  
 S. V. Levchenko,  Ching Yeh Lin,  D. Liotard,  R. C. Lochan,  I. Lotan,  
 P. E. Maslen,  N. Nair,  D. P. O'Neill,  D. Neuhauser,  E. Neuscamman,  
 C. M. Oana,  R. Olson,  B. Peters,  R. Peverati,  P. A. Pieniazek,  
 Y. M. Rhee,  J. Ritchie,  M. A. Rohrdanz,  E. Rosta,  N. J. Russ,  
 H. F. Schaefer III,  N. E. Schultz,  N. Shenvi,  A. C. Simmonett,  A. Sodt,  
 D. Stuck,  K. S. Thanthiriwatte,  V. Vanovschi,  Tao Wang,  A. Warshel,  
 C. F. Williams,  Q. Wu,  X. Xu,  W. Zhang

 Please cite Q-Chem as follows:
 Y. Shao et al., Mol. Phys. 113, 184-215 (2015)
 DOI: 10.1080/00268976.2014.952696

 Q-Chem 5.1.2 for Intel X86 EM64T Linux

 Parts of Q-Chem use Armadillo 8.300.2 (Tropical Shenanigans).
 http://arma.sourceforge.net/

 Q-Chem begins on Wed Jul  3 19:18:14 2019  

Host: 
0

     Scratch files written to /scratch/xuedong/qchem16605//
 Dec218 |scratch|qcdevops|jenkins|workspace|build_RNUM 6581   
Processing $rem in /home/qwang/software/qchem5.1.2/config/preferences.
 MEM_TOTAL  4000 
Core orbitals will be frozen
Input Ideriv = 1
Curr. Ideriv = -1
Max.  Ideriv = 1

Checking the input file for inconsistencies... 	...done.

--------------------------------------------------------------
User input:
--------------------------------------------------------------
$molecule
0 1
Si    -1.603238946    -0.037666475    -0.093158434
H    -1.351489209     0.587977452    -1.416517664
H    -1.362259228    -1.490505278    -0.207462190
H    -0.720166038     0.598793029     0.904338035
N    -3.226075392     0.145065116     0.503430997
H    -3.972557755    -0.323149309     0.014787982
H    -3.532381265     1.064684992     0.778721563
Si     5.489500476     0.185172885     0.002912194
H     6.945298884     0.073706831    -0.270304748
H     5.227090452    -0.448672988     1.311414634
H     5.146814858     1.622022734     0.036967767
N     4.447637024    -0.572444213    -1.163334558
H     4.464801694    -1.578814198    -1.229784348
H     4.409170356    -0.177805771    -2.090564922
$end

$rem
BASIS = aug-cc-pVTZ
JOB_TYPE  =  SP
METHOD  =  MP2
SCF_MAX_CYCLES  =  200
$end

--------------------------------------------------------------
 ----------------------------------------------------------------
             Standard Nuclear Orientation (Angstroms)
    I     Atom           X                Y                Z
 ----------------------------------------------------------------
    1      Si     -3.1047556980    -0.1391558365    -0.0281696199
    2      H      -2.7781831092    -0.8826072420    -1.2718409017
    3      H      -2.8409660948    -1.0198119252     1.1280038356
    4      H      -2.2925669161     1.0932084638     0.0108852220
    5      N      -4.7634854840     0.3641408350     0.1067965667
    6      H      -5.4728743537    -0.3438542420     0.2104453228
    7      H      -5.0965424021     1.0816971570    -0.5172987097
    8      Si      3.9653587897     0.4751849516     0.0154879329
    9      H       5.4364810568     0.2707685828    -0.0053544915
   10      H       3.6291624586     1.2011290587     1.2575730457
   11      H       3.6052348905     1.2742946436    -1.1739931224
   12      N       3.0065401873    -0.9736289655    -0.0191491518
   13      H       3.0390127686    -1.5817435820     0.7849857200
   14      H       3.0214154939    -1.5310716134    -0.8593942065
 ----------------------------------------------------------------
 Molecular Point Group                 C1    NOp =  1
 Largest Abelian Subgroup              C1    NOp =  1
 Nuclear Repulsion Energy =   178.4126853253 hartrees
 There are       26 alpha and       26 beta electrons
 Requested basis set is aug-cc-pVTZ
 There are 150 shells and 422 basis functions

 Total QAlloc Memory Limit   4000 MB
 Mega-Array Size       188 MB
 MEM_STATIC part       192 MB

                       Distance Matrix (Angstroms)
             Si(  1)   H (  2)   H (  3)   H (  4)   N (  5)   H (  6)
   H (  2)  1.485291
   H (  3)  1.477118  2.404583
   H (  4)  1.476448  2.405215  2.452254
   N (  5)  1.738651  2.719641  2.579587  2.578018
   H (  6)  2.388896  3.122305  2.868061  3.495616  1.007588
   H (  7)  2.386827  3.130913  3.494422  2.853312  1.007625  1.644212
   Si(  8)  7.096889  6.998298  7.056824  6.288371  8.730028  9.475710
   H (  9)  8.551098  8.391363  8.453770  7.772699 10.201010 10.928786
   H ( 10)  6.985353  7.196803  6.841924  6.052500  8.512425  9.291422
   H ( 11)  6.952318  6.738681  7.219115  6.018371  8.514945  9.324545
   N ( 12)  6.168011  5.919505  5.959146  5.687992  7.885353  8.505869
   H ( 13)  6.363032  6.209597  5.916720  6.015010  8.070030  8.620597
   H ( 14)  6.337061  5.850296  6.211172  5.990212  8.070318  8.643321
             H (  7)   Si(  8)   H (  9)   H ( 10)   H ( 11)   N ( 12)
   Si(  8)  9.097789
   H (  9) 10.576591  1.485403
   H ( 10)  8.905187  1.477430  2.393106
   H ( 11)  8.728646  1.477542  2.392957  2.432784
   N ( 12)  8.374513  1.737698  2.730078  2.597547  2.597164
   H ( 13)  8.658933  2.383527  3.131181  2.883747  3.509296  1.008707
   H ( 14)  8.534918  2.383592  3.131861  3.509391  2.882689  1.008452
             H ( 13)
   H ( 14)  1.645255
 
 A cutoff of  1.0D-08 yielded   7774 shell pairs
 There are     56670 function pairs (     71740 Cartesian)
 
 -------------------------------------------------------
 OpenMP Integral Computing Module                       
 Release: version 1.0, May 2013, Q-Chem Inc. Pittsburgh 
 -------------------------------------------------------
 Integral Job Info:
 Integral job number is                      11
 Integral operator is                         1
 short-range coefficients                     0
 long-range coefficients              100000000
 Omega coefficients                           0
 if combine SR and LR in K                    0
 Integral screening is                        0
 Integral computing path is                   2
 max size of driver memory is            800000
 size of driver memory is                776718
 size of scratch memory is             29531563
 max col of scratch BK array              10000
 max len of scratch array in speh3          662
 max len of scratch index in speh4           32
 max int batch size is                      520
 min int batch size is                       52
 fixed nKL is                                31
 max L of basis functions is                  3
 order of int derivative is                   0
 number of shells is                        150
 number of basis is                         478
 number of cartesian basis is               478
 number of contracted shell pairs          7774
 number of primitive shell pairs          23398
 maxK2 (contraction) of shell pair          169
 max number of K2 of shell pair               1
 max number of CS2 of shell pair           1465
 max number of PS2 of shell pair           2119
 mem total for path MDJ                  682364
 -------------------------------------------------------
 Smallest overlap matrix eigenvalue = 2.05E-05

 Q-Chem warning in module stvman/mkSTV.C, line 306:

 Overlap eigenvalue is smaller than square root of threshold
 Use THRESH >= 12 to get rid of this warning


 Scale SEOQF with 1.000000e-02/1.000000e-01/1.000000e-01

 Standard Electronic Orientation quadrupole field applied
 Nucleus-field energy     =     0.0000000034 hartrees
 Guess from superposition of atomic densities
 Warning:  Energy on first SCF cycle will be non-variational
 SAD guess density has 52.000000 electrons

 -----------------------------------------------------------------------
  General SCF calculation program by
  Eric Jon Sundstrom, Paul Horn, Yuezhi Mao, Dmitri Zuev, Alec White,
  David Stuck, Shaama M.S., Shane Yost, Joonho Lee, David Small,
  Daniel Levine, Susi Lehtola, Hugh Burton, Evgeny Epifanovsky
 -----------------------------------------------------------------------
 Hartree-Fock
 using 6 threads for integral computing
 -------------------------------------------------------
 OpenMP Integral computing Module                
 Release: version 1.0, May 2013, Q-Chem Inc. Pittsburgh 
 -------------------------------------------------------
 A restricted SCF calculation will be
 performed using DIIS
 SCF converges when DIIS error is below 1.0e-05
 ---------------------------------------
  Cycle       Energy         DIIS error
 ---------------------------------------
    1    -692.8758560516      1.68e-02  
    2    -692.6258654511      1.67e-03  
    3    -692.6876515068      7.89e-04  
    4    -692.6999104485      1.93e-04  
    5    -692.7011330683      2.56e-05  
    6    -692.7011677063      6.19e-06  Convergence criterion met
 ---------------------------------------
 SCF time:   CPU 238.47s  wall 39.00s 
 SCF   energy in the final basis set =     -692.7011677063
 Total energy in the final basis set =     -692.7011677063
 
 Components of the MP2 correlation energy:
        aaaa  correlation energy =        -0.0706788961 au
        abab  correlation energy =        -0.5783813645 au
        bbbb  correlation energy =        -0.0706788961 au
        non-Brillouin singles    =        -0.0000000000 au

 Total  MP2   correlation energy =                    -0.71973916 au
        MP2         total energy =                  -693.42090686 au
 
 --------------------------------------------------------------
 
                    Orbital Energies (a.u.)
 --------------------------------------------------------------
 
 Alpha MOs
 -- Occupied --
-68.778 -68.777 -15.537 -15.534  -6.124  -6.123  -4.231  -4.231
 -4.230  -4.229  -4.229  -4.229  -1.135  -1.132  -0.720  -0.718
 -0.654  -0.652  -0.552  -0.548  -0.491  -0.490  -0.476  -0.476
 -0.403  -0.400
 -- Virtual --
  0.027   0.031   0.042   0.045   0.049   0.051   0.061   0.065
  0.066   0.068   0.075   0.077   0.081   0.082   0.086   0.113
  0.130   0.138   0.141   0.142   0.151   0.156   0.162   0.163
  0.167   0.170   0.173   0.178   0.179   0.187   0.190   0.192
  0.201   0.206   0.222   0.225   0.239   0.246   0.253   0.254
  0.264   0.265   0.268   0.276   0.277   0.288   0.297   0.300
  0.306   0.316   0.323   0.330   0.334   0.342   0.345   0.356
  0.359   0.366   0.369   0.374   0.380   0.385   0.389   0.395
  0.400   0.404   0.408   0.415   0.422   0.424   0.433   0.441
  0.445   0.464   0.468   0.473   0.475   0.478   0.494   0.498
  0.503   0.505   0.526   0.537   0.540   0.543   0.568   0.574
  0.585   0.597   0.604   0.617   0.622   0.633   0.639   0.647
  0.649   0.652   0.655   0.662   0.666   0.669   0.678   0.682
  0.683   0.688   0.700   0.710   0.718   0.727   0.735   0.741
  0.751   0.757   0.811   0.815   0.820   0.823   0.883   0.891
  0.910   0.920   0.925   0.929   0.932   0.934   0.951   0.957
  0.961   0.965   0.969   0.978   0.981   0.982   0.983   0.993
  1.005   1.020   1.032   1.036   1.043   1.048   1.062   1.065
  1.074   1.083   1.098   1.103   1.114   1.119   1.127   1.128
  1.129   1.138   1.141   1.147   1.154   1.164   1.166   1.174
  1.188   1.194   1.206   1.209   1.216   1.222   1.227   1.233
  1.237   1.245   1.270   1.280   1.291   1.298   1.299   1.308
  1.332   1.336   1.339   1.343   1.349   1.356   1.357   1.359
  1.380   1.385   1.388   1.397   1.401   1.416   1.421   1.425
  1.440   1.451   1.455   1.464   1.479   1.488   1.496   1.504
  1.528   1.534   1.536   1.540   1.550   1.553   1.554   1.558
  1.577   1.603   1.687   1.693   1.742   1.746   1.752   1.756
  1.789   1.797   1.807   1.809   1.868   1.871   1.906   1.928
  1.940   1.947   1.961   1.966   2.008   2.012   2.016   2.019
  2.091   2.098   2.101   2.101   2.119   2.143   2.163   2.174
  2.200   2.201   2.206   2.221   2.230   2.236   2.241   2.244
  2.297   2.298   2.307   2.310   2.365   2.369   2.388   2.390
  2.445   2.455   2.476   2.482   2.502   2.505   2.690   2.695
  2.878   2.888   3.113   3.120   3.125   3.131   3.331   3.364
  3.542   3.546   3.665   3.670   3.680   3.685   3.735   3.739
  3.753   3.757   3.959   3.960   3.986   3.992   4.001   4.004
  4.012   4.017   4.083   4.089   4.098   4.102   4.122   4.124
  4.125   4.133   4.154   4.157   4.176   4.181   4.182   4.187
  4.227   4.231   4.234   4.236   4.264   4.269   4.287   4.290
  4.302   4.309   4.353   4.365   4.379   4.389   4.455   4.456
  4.465   4.473   4.497   4.499   4.504   4.505   4.542   4.546
  4.550   4.556   4.581   4.586   4.634   4.637   4.664   4.666
  4.719   4.729   4.738   4.747   4.774   4.776   4.794   4.803
  4.809   4.815   4.831   4.834   4.853   4.863   4.947   4.948
  4.975   4.984   5.060   5.066   5.120   5.130   5.131   5.132
  5.154   5.159   5.203   5.207   5.298   5.300   5.314   5.329
  5.407   5.414   5.518   5.522   5.562   5.566   5.883   5.890
  5.964   5.967   6.048   6.056   6.171   6.179   6.191   6.197
  6.471   6.473   6.619   6.622   6.729   6.736   7.750   7.753
  8.656   8.709  16.242  16.266
 --------------------------------------------------------------
 
          Ground-State Mulliken Net Atomic Charges

     Atom                 Charge (a.u.)
  ----------------------------------------
      1 Si                    1.041238
      2 H                    -0.310905
      3 H                    -0.259255
      4 H                    -0.263657
      5 N                    -0.460209
      6 H                     0.127390
      7 H                     0.125187
      8 Si                    1.076902
      9 H                    -0.329893
     10 H                    -0.280918
     11 H                    -0.280738
     12 N                    -0.440790
     13 H                     0.127795
     14 H                     0.127844
  ----------------------------------------
  Sum of atomic charges =    -0.000008

 -----------------------------------------------------------------
                    Cartesian Multipole Moments
 -----------------------------------------------------------------
    Charge (ESU x 10^10)
                -0.0000
    Dipole Moment (Debye)
         X      -0.3950      Y      -1.3269      Z      -0.8113
       Tot       1.6046
    Quadrupole Moments (Debye-Ang)
        XX     -36.8572     XY      -2.7232     YY     -41.6872
        XZ       4.1387     YZ      -1.7430     ZZ     -44.3627
    Octopole Moments (Debye-Ang^2)
       XXX     -81.7215    XXY     -20.9253    XYY       0.7510
       YYY      -7.9520    XXZ     -21.6332    XYZ       8.7210
       YYZ      -1.4299    XZZ       6.3443    YZZ      -4.6509
       ZZZ      -0.7114
    Hexadecapole Moments (Debye-Ang^3)
      XXXX   -3513.7190   XXXY      -4.4096   XXYY    -602.0092
      XYYY     -41.2268   YYYY    -163.4548   XXXZ     108.3680
      XXYZ     -44.0613   XYYZ       8.6738   YYYZ      -2.9666
      XXZZ    -647.1091   XYZZ     -28.4089   YYZZ     -43.7578
      XZZZ       1.2242   YZZZ      -2.0867   ZZZZ    -103.9772
 -----------------------------------------------------------------
Archival summary:
1\1\gm4.localdomain\SP\MP2\BasisUnspecified\i2210\xuedong\WedJul319:22:232019WedJul319:22:232019\0\\#,MP2,BasisUnspecified,\\0,1\Si\H,1,1.47645\H,1,1.47712,2,112.253\H,1,1.48529,2,108.602,3,-119.994,0\N,1,1.73865,2,106.328,3,115.95,0\H,5,1.00759,1,118.442,2,-172.797,0\H,5,1.00763,1,118.256,2,51.2347,0\N,2,5.68799,1,102.067,3,59.5963,0\H,8,1.00845,2,102.65,1,56.8983,0\H,8,1.00871,2,104.173,1,-57.058,0\Si,8,1.7377,2,102.18,1,179.619,0\H,11,1.47743,8,107.51,2,60.5408,0\H,11,1.47754,8,107.481,2,-58.8187,0\H,11,1.4854,8,115.56,2,-179.118,0\\HF=-692.701168\MP2=-693.420907\\@

 Total job time:  248.42s(wall), 1468.50s(cpu) 
 Wed Jul  3 19:22:23 2019

        *************************************************************
        *                                                           *
        *  Thank you very much for using Q-Chem.  Have a nice day.  *
        *                                                           *
        *************************************************************



Running Job 2 of 3 ../qm_inp/SiH3NH2_SiH3NH2_con1.200.qcinp
qchem ../qm_inp/SiH3NH2_SiH3NH2_con1.200.qcinp_16605.1 /scratch/xuedong/qchem16605/ 1
/home/qwang/software/qchem5.1.2/exe/qcprog.exe_s ../qm_inp/SiH3NH2_SiH3NH2_con1.200.qcinp_16605.1 /scratch/xuedong/qchem16605/
Check license passed

                  Welcome to Q-Chem
     A Quantum Leap Into The Future Of Chemistry


 Q-Chem 5.1, Q-Chem, Inc., Pleasanton, CA (2018)

 Yihan Shao,  Zhengting Gan,  E. Epifanovsky,  A. T. B. Gilbert,  M. Wormit,  
 J. Kussmann,  A. W. Lange,  A. Behn,  Jia Deng,  Xintian Feng,  D. Ghosh,  
 M. Goldey,  P. R. Horn,  L. D. Jacobson,  I. Kaliman,  T. Kus,  A. Landau,  
 Jie Liu,  E. I. Proynov,  R. M. Richard,  R. P. Steele,  E. J. Sundstrom,  
 H. L. Woodcock III,  P. M. Zimmerman,  D. Zuev,  B. Albrecht,  E. Alguire,  
 S. A. Baeppler,  D. Barton,  Z. Benda,  Y. A. Bernard,  E. J. Berquist,  
 K. B. Bravaya,  H. Burton,  D. Casanova,  Chun-Min Chang,  Yunqing Chen,  
 A. Chien,  K. D. Closser,  M. P. Coons,  S. Coriani,  S. Dasgupta,  
 A. L. Dempwolff,  M. Diedenhofen,  Hainam Do,  R. G. Edgar,  Po-Tung Fang,  
 S. Faraji,  S. Fatehi,  Qingguo Feng,  K. D. Fenk,  J. Fosso-Tande,  
 J. Gayvert,  Qinghui Ge,  A. Ghysels,  G. Gidofalvi,  J. Gomes,  
 J. Gonthier,  A. Gunina,  D. Hait,  M. W. D. Hanson-Heine,  
 P. H. P. Harbach,  A. W. Hauser,  J. E. Herr,  E. G. Hohenstein,  
 Z. C. Holden,  Kerwin Hui,  B. C. Huynh,  T.-C. Jagau,  Hyunjun Ji,  
 B. Kaduk,  K. Khistyaev,  Jaehoon Kim,  P. Klunzinger,  K. Koh,  
 D. Kosenkov,  L. Koulias,  T. Kowalczyk,  C. M. Krauter,  A. Kunitsa,  
 Ka Un Lao,  A. Laurent,  K. V. Lawler,  Joonho Lee,  D. Lefrancois,  
 S. Lehtola,  D. S. Levine,  Yi-Pei Li,  You-Sheng Lin,  Fenglai Liu,  
 E. Livshits,  A. Luenser,  P. Manohar,  E. Mansoor,  S. F. Manzer,  
 Shan-Ping Mao,  Yuezhi Mao,  N. Mardirossian,  A. V. Marenich,  
 T. Markovich,  L. A. Martinez-Martinez,  S. A. Maurer,  N. J. Mayhall,  
 S. C. McKenzie,  J.-M. Mewes,  A. F. Morrison,  J. W. Mullinax,  K. Nanda,  
 T. S. Nguyen-Beck,  R. Olivares-Amaya,  J. A. Parkhill,  T. M. Perrine,  
 F. Plasser,  P. Pokhilko,  S. Prager,  A. Prociuk,  E. Ramos,  D. R. Rehn,  
 F. Rob,  M. Schneider,  N. Sergueev,  S. M. Sharada,  S. Sharma,  
 D. W. Small,  T. Stauch,  T. Stein,  Yu-Chuan Su,  A. J. W. Thom,  
 A. Tkatchenko,  T. Tsuchimochi,  N. M. Tubman,  L. Vogt,  M. L. Vidal,  
 O. Vydrov,  M. A. Watson,  J. Wenzel,  M. de Wergifosse,  T. A. Wesolowski,  
 A. White,  J. Witte,  A. Yamada,  Jun Yang,  K. Yao,  S. Yeganeh,  
 S. R. Yost,  Zhi-Qiang You,  A. Zech,  Igor Ying Zhang,  Xing Zhang,  
 Yan Zhao,  Ying Zhu,  B. R. Brooks,  G. K. L. Chan,  C. J. Cramer,  
 M. S. Gordon,  W. J. Hehre,  A. Klamt,  M. W. Schmidt,  C. D. Sherrill,  
 D. G. Truhlar,  A. Aspuru-Guzik,  R. Baer,  A. T. Bell,  N. A. Besley,  
 Jeng-Da Chai,  A. E. DePrince, III,  R. A. DiStasio Jr.,  A. Dreuw,  
 B. D. Dunietz,  T. R. Furlani,  Chao-Ping Hsu,  Yousung Jung,  Jing Kong,  
 D. S. Lambrecht,  WanZhen Liang,  C. Ochsenfeld,  V. A. Rassolov,  
 L. V. Slipchenko,  J. E. Subotnik,  T. Van Voorhis,  J. M. Herbert,  
 A. I. Krylov,  P. M. W. Gill,  M. Head-Gordon

 Contributors to earlier versions of Q-Chem not listed above: 
 R. D. Adamson,  B. Austin,  J. Baker,  G. J. O. Beran,  K. Brandhorst,  
 S. T. Brown,  E. F. C. Byrd,  A. K. Chakraborty,  C.-L. Cheng,  
 Siu Hung Chien,  D. M. Chipman,  D. L. Crittenden,  H. Dachsel,  
 R. J. Doerksen,  A. D. Dutoi,  L. Fusti-Molnar,  W. A. Goddard III,  
 A. Golubeva-Zadorozhnaya,  S. R. Gwaltney,  G. Hawkins,  A. Heyden,  
 S. Hirata,  G. Kedziora,  F. J. Keil,  C. Kelley,  Jihan Kim,  R. A. King,  
 R. Z. Khaliullin,  P. P. Korambath,  W. Kurlancheek,  A. M. Lee,  M. S. Lee,  
 S. V. Levchenko,  Ching Yeh Lin,  D. Liotard,  R. C. Lochan,  I. Lotan,  
 P. E. Maslen,  N. Nair,  D. P. O'Neill,  D. Neuhauser,  E. Neuscamman,  
 C. M. Oana,  R. Olson,  B. Peters,  R. Peverati,  P. A. Pieniazek,  
 Y. M. Rhee,  J. Ritchie,  M. A. Rohrdanz,  E. Rosta,  N. J. Russ,  
 H. F. Schaefer III,  N. E. Schultz,  N. Shenvi,  A. C. Simmonett,  A. Sodt,  
 D. Stuck,  K. S. Thanthiriwatte,  V. Vanovschi,  Tao Wang,  A. Warshel,  
 C. F. Williams,  Q. Wu,  X. Xu,  W. Zhang

 Please cite Q-Chem as follows:
 Y. Shao et al., Mol. Phys. 113, 184-215 (2015)
 DOI: 10.1080/00268976.2014.952696

 Q-Chem 5.1.2 for Intel X86 EM64T Linux

 Parts of Q-Chem use Armadillo 8.300.2 (Tropical Shenanigans).
 http://arma.sourceforge.net/

 Q-Chem begins on Wed Jul  3 19:22:23 2019  

Host: 
0

     Scratch files written to /scratch/xuedong/qchem16605//
 Dec218 |scratch|qcdevops|jenkins|workspace|build_RNUM 6581   
Processing $rem in /home/qwang/software/qchem5.1.2/config/preferences.
 MEM_TOTAL  4000 
Core orbitals will be frozen
Input Ideriv = 1
Curr. Ideriv = -1
Max.  Ideriv = 1

Checking the input file for inconsistencies... 	...done.

--------------------------------------------------------------
User input:
--------------------------------------------------------------

$molecule
0 1
Si    -1.603238946    -0.037666475    -0.093158434
H    -1.351489209     0.587977452    -1.416517664
H    -1.362259228    -1.490505278    -0.207462190
H    -0.720166038     0.598793029     0.904338035
N    -3.226075392     0.145065116     0.503430997
H    -3.972557755    -0.323149309     0.014787982
H    -3.532381265     1.064684992     0.778721563
@Si     5.489500476     0.185172885     0.002912194
@H     6.945298884     0.073706831    -0.270304748
@H     5.227090452    -0.448672988     1.311414634
@H     5.146814858     1.622022734     0.036967767
@N     4.447637024    -0.572444213    -1.163334558
@H     4.464801694    -1.578814198    -1.229784348
@H     4.409170356    -0.177805771    -2.090564922
$end

$rem
BASIS = aug-cc-pVTZ
JOB_TYPE  =  SP
METHOD  =  MP2
SCF_MAX_CYCLES  =  200
$end

--------------------------------------------------------------
 ----------------------------------------------------------------
             Standard Nuclear Orientation (Angstroms)
    I     Atom           X                Y                Z
 ----------------------------------------------------------------
    1      Si     -1.6032389460    -0.0376664750    -0.0931584340
    2      H      -1.3514892090     0.5879774520    -1.4165176640
    3      H      -1.3622592280    -1.4905052780    -0.2074621900
    4      H      -0.7201660380     0.5987930290     0.9043380350
    5      N      -3.2260753920     0.1450651160     0.5034309970
    6      H      -3.9725577550    -0.3231493090     0.0147879820
    7      H      -3.5323812650     1.0646849920     0.7787215630
    8      GH      5.4895004760     0.1851728850     0.0029121940
    9      GH      6.9452988840     0.0737068310    -0.2703047480
   10      GH      5.2270904520    -0.4486729880     1.3114146340
   11      GH      5.1468148580     1.6220227340     0.0369677670
   12      GH      4.4476370240    -0.5724442130    -1.1633345580
   13      GH      4.4648016940    -1.5788141980    -1.2297843480
   14      GH      4.4091703560    -0.1778057710    -2.0905649220
 ----------------------------------------------------------------
 Nuclear Repulsion Energy =    64.6300734758 hartrees
 There are       13 alpha and       13 beta electrons
 Requested basis set is aug-cc-pVTZ
 There are 150 shells and 422 basis functions

 Total QAlloc Memory Limit   4000 MB
 Mega-Array Size       188 MB
 MEM_STATIC part       192 MB

                       Distance Matrix (Angstroms)
             Si(  1)   H (  2)   H (  3)   H (  4)   N (  5)   H (  6)
   H (  2)  1.485291
   H (  3)  1.477118  2.404583
   H (  4)  1.476448  2.405215  2.452254
   N (  5)  1.738651  2.719641  2.579587  2.578018
   H (  6)  2.388896  3.122305  2.868061  3.495616  1.007588
   H (  7)  2.386827  3.130913  3.494422  2.853312  1.007625  1.644212
   GH(  8)  7.096889  6.998298  7.056824  6.288371  8.730028  9.475710
   GH(  9)  8.551098  8.391363  8.453770  7.772699 10.201010 10.928786
   GH( 10)  6.985353  7.196803  6.841924  6.052500  8.512425  9.291422
   GH( 11)  6.952318  6.738681  7.219115  6.018371  8.514945  9.324545
   GH( 12)  6.168011  5.919505  5.959146  5.687992  7.885353  8.505869
   GH( 13)  6.363032  6.209597  5.916720  6.015010  8.070030  8.620597
   GH( 14)  6.337061  5.850296  6.211172  5.990212  8.070318  8.643321
             H (  7)   GH(  8)   GH(  9)   GH( 10)   GH( 11)   GH( 12)
   GH(  8)  9.097789
   GH(  9) 10.576591  1.485403
   GH( 10)  8.905187  1.477430  2.393106
   GH( 11)  8.728646  1.477542  2.392957  2.432784
   GH( 12)  8.374513  1.737698  2.730078  2.597547  2.597164
   GH( 13)  8.658933  2.383527  3.131181  2.883747  3.509296  1.008707
   GH( 14)  8.534918  2.383592  3.131861  3.509391  2.882689  1.008452
             GH( 13)
   GH( 14)  1.645255
 
 A cutoff of  1.0D-08 yielded   7774 shell pairs
 There are     56670 function pairs (     71740 Cartesian)
 
 -------------------------------------------------------
 OpenMP Integral Computing Module                       
 Release: version 1.0, May 2013, Q-Chem Inc. Pittsburgh 
 -------------------------------------------------------
 Integral Job Info:
 Integral job number is                      11
 Integral operator is                         1
 short-range coefficients                     0
 long-range coefficients              100000000
 Omega coefficients                           0
 if combine SR and LR in K                    0
 Integral screening is                        0
 Integral computing path is                   2
 max size of driver memory is            800000
 size of driver memory is                776718
 size of scratch memory is             29531563
 max col of scratch BK array              10000
 max len of scratch array in speh3          662
 max len of scratch index in speh4           32
 max int batch size is                      520
 min int batch size is                       52
 fixed nKL is                                31
 max L of basis functions is                  3
 order of int derivative is                   0
 number of shells is                        150
 number of basis is                         478
 number of cartesian basis is               478
 number of contracted shell pairs          7774
 number of primitive shell pairs          23398
 maxK2 (contraction) of shell pair          169
 max number of K2 of shell pair               1
 max number of CS2 of shell pair           1465
 max number of PS2 of shell pair           2119
 mem total for path MDJ                  682364
 -------------------------------------------------------
 Smallest overlap matrix eigenvalue = 2.05E-05

 Q-Chem warning in module stvman/mkSTV.C, line 306:

 Overlap eigenvalue is smaller than square root of threshold
 Use THRESH >= 12 to get rid of this warning


 Scale SEOQF with 1.000000e-02/1.000000e-01/1.000000e-01

 Standard Electronic Orientation quadrupole field applied
 Nucleus-field energy     =     0.0000000002 hartrees
 Guess from superposition of atomic densities
 Warning:  Energy on first SCF cycle will be non-variational
 SAD guess density has 26.000000 electrons

 -----------------------------------------------------------------------
  General SCF calculation program by
  Eric Jon Sundstrom, Paul Horn, Yuezhi Mao, Dmitri Zuev, Alec White,
  David Stuck, Shaama M.S., Shane Yost, Joonho Lee, David Small,
  Daniel Levine, Susi Lehtola, Hugh Burton, Evgeny Epifanovsky
 -----------------------------------------------------------------------
 Hartree-Fock
 using 6 threads for integral computing
 -------------------------------------------------------
 OpenMP Integral computing Module                
 Release: version 1.0, May 2013, Q-Chem Inc. Pittsburgh 
 -------------------------------------------------------
 A restricted SCF calculation will be
 performed using DIIS
 SCF converges when DIIS error is below 1.0e-05
 ---------------------------------------
  Cycle       Energy         DIIS error
 ---------------------------------------
    1    -346.4383505317      1.19e-02  
    2    -346.3125567599      1.19e-03  
    3    -346.3436132996      5.64e-04  
    4    -346.3498791633      1.36e-04  
    5    -346.3504917926      1.80e-05  
    6    -346.3505088560      4.31e-06  Convergence criterion met
 ---------------------------------------
 SCF time:   CPU 208.77s  wall 35.00s 
 SCF   energy in the final basis set =     -346.3505088560
 Total energy in the final basis set =     -346.3505088560
 
 Components of the MP2 correlation energy:
        aaaa  correlation energy =        -0.0353244408 au
        abab  correlation energy =        -0.2891582105 au
        bbbb  correlation energy =        -0.0353244408 au
        non-Brillouin singles    =        -0.0000000000 au

 Total  MP2   correlation energy =                    -0.35980709 au
        MP2         total energy =                  -346.71031595 au
 
 --------------------------------------------------------------
 
                    Orbital Energies (a.u.)
 --------------------------------------------------------------
 
 Alpha MOs
 -- Occupied --
-68.779 -15.536  -6.125  -4.232  -4.232  -4.231  -1.134  -0.721
 -0.654  -0.551  -0.493  -0.478  -0.402
 -- Virtual --
  0.020   0.030   0.041   0.043   0.045   0.049   0.060   0.062
  0.065   0.067   0.074   0.076   0.078   0.082   0.088   0.090
  0.114   0.129   0.137   0.141   0.145   0.148   0.155   0.163
  0.171   0.173   0.174   0.179   0.181   0.183   0.197   0.198
  0.203   0.206   0.213   0.226   0.232   0.237   0.244   0.245
  0.255   0.265   0.269   0.274   0.295   0.297   0.299   0.313
  0.317   0.322   0.329   0.332   0.345   0.348   0.357   0.359
  0.365   0.371   0.372   0.379   0.380   0.387   0.390   0.394
  0.397   0.404   0.413   0.418   0.422   0.432   0.436   0.440
  0.449   0.460   0.464   0.468   0.476   0.480   0.492   0.497
  0.499   0.509   0.531   0.539   0.548   0.565   0.580   0.593
  0.600   0.612   0.619   0.632   0.634   0.642   0.648   0.658
  0.666   0.668   0.672   0.675   0.683   0.701   0.711   0.713
  0.716   0.725   0.730   0.737   0.750   0.759   0.772   0.791
  0.794   0.810   0.816   0.824   0.827   0.839   0.846   0.881
  0.900   0.915   0.916   0.925   0.927   0.938   0.950   0.960
  0.963   0.975   0.980   0.989   0.997   1.004   1.007   1.029
  1.032   1.035   1.038   1.055   1.064   1.070   1.080   1.086
  1.097   1.109   1.114   1.116   1.125   1.130   1.139   1.140
  1.150   1.151   1.158   1.166   1.171   1.181   1.190   1.191
  1.202   1.208   1.221   1.225   1.234   1.244   1.267   1.272
  1.274   1.281   1.286   1.293   1.305   1.311   1.325   1.332
  1.340   1.349   1.351   1.354   1.371   1.386   1.388   1.393
  1.402   1.422   1.423   1.436   1.448   1.458   1.483   1.487
  1.497   1.505   1.524   1.534   1.536   1.544   1.554   1.555
  1.571   1.590   1.594   1.612   1.665   1.679   1.684   1.690
  1.712   1.738   1.743   1.747   1.750   1.751   1.794   1.806
  1.828   1.868   1.872   1.873   1.904   1.935   1.945   1.959
  1.970   1.985   1.988   2.006   2.014   2.035   2.039   2.096
  2.099   2.114   2.129   2.137   2.143   2.162   2.200   2.203
  2.233   2.241   2.257   2.293   2.296   2.301   2.308   2.350
  2.365   2.386   2.387   2.422   2.443   2.480   2.492   2.496
  2.503   2.557   2.621   2.693   2.698   2.806   2.822   2.834
  2.849   2.877   2.941   2.974   3.064   3.107   3.109   3.115
  3.124   3.237   3.360   3.523   3.541   3.663   3.677   3.736
  3.747   3.756   3.762   3.958   3.989   4.002   4.014   4.032
  4.087   4.099   4.121   4.131   4.154   4.178   4.184   4.212
  4.229   4.232   4.237   4.252   4.265   4.271   4.284   4.303
  4.356   4.360   4.365   4.387   4.387   4.396   4.454   4.455
  4.458   4.464   4.465   4.501   4.502   4.529   4.543   4.552
  4.555   4.564   4.581   4.602   4.627   4.631   4.637   4.652
  4.656   4.664   4.710   4.725   4.745   4.771   4.791   4.794
  4.813   4.829   4.861   4.939   4.946   4.950   4.980   5.025
  5.029   5.059   5.089   5.092   5.116   5.128   5.130   5.156
  5.179   5.182   5.203   5.209   5.269   5.273   5.298   5.325
  5.327   5.344   5.384   5.411   5.415   5.452   5.516   5.519
  5.561   5.723   5.733   5.888   5.945   5.966   5.985   6.045
  6.053   6.091   6.177   6.183   6.190   6.195   6.362   6.469
  6.620   6.631   6.635   6.734   6.818   7.428   7.480   7.519
  7.598   7.752   7.814   8.090   8.674   9.288   9.325  10.077
 10.946  11.919  14.564  16.259  20.330  20.383  20.875  56.791
106.963
 --------------------------------------------------------------
 
          Ground-State Mulliken Net Atomic Charges

     Atom                 Charge (a.u.)
  ----------------------------------------
      1 Si                    1.039211
      2 H                    -0.309985
      3 H                    -0.258135
      4 H                    -0.264963
      5 N                    -0.459670
      6 H                     0.128104
      7 H                     0.125619
      8 GH                    0.000283
      9 GH                    0.000016
     10 GH                    0.000006
     11 GH                   -0.000090
     12 GH                   -0.000751
     13 GH                    0.000150
     14 GH                    0.000203
  ----------------------------------------
  Sum of atomic charges =    -0.000002

 -----------------------------------------------------------------
                    Cartesian Multipole Moments
 -----------------------------------------------------------------
    Charge (ESU x 10^10)
                -0.0000
    Dipole Moment (Debye)
         X      -0.8467      Y       0.5598      Z      -0.5260
       Tot       1.1432
    Quadrupole Moments (Debye-Ang)
        XX     -16.5028     XY      -1.9776     YY     -21.3624
        XZ       2.0547     YZ       1.5337     ZZ     -24.2074
    Octopole Moments (Debye-Ang^2)
       XXX     107.7051    XXY       5.1868    XYY      41.1547
       YYY       1.8313    XXZ      -9.4983    XYZ      -5.4481
       YYZ       0.1400    XZZ      50.5789    YZZ      -0.4354
       ZZZ      -4.8918
    Hexadecapole Moments (Debye-Ang^3)
      XXXX    -551.6380   XXXY      -8.1940   XXYY    -106.8896
      XYYY      -0.9067   YYYY     -51.9075   XXXZ      51.0061
      XXYZ      18.3500   XYYZ       2.8914   YYYZ      -0.7672
      XXZZ    -140.3916   XYZZ       0.0774   YYZZ     -18.3912
      XZZZ      27.4999   YZZZ      -0.7236   ZZZZ     -65.5684
 -----------------------------------------------------------------
Archival summary:
1\1\gm4.localdomain\SP\MP2\BasisUnspecified\i115h7\xuedong\WedJul319:24:412019WedJul319:24:412019\0\\#,MP2,BasisUnspecified,\\0,1\Si\H,1,1.47645\H,1,1.47712,2,112.253\H,1,1.48529,2,108.602,3,-119.994,0\N,1,1.73865,2,106.328,3,115.95,0\H,5,1.00759,1,118.442,2,-172.797,0\H,5,1.00763,1,118.256,2,51.2347,0\Gh,2,5.68799,1,102.067,3,59.5963,0\Gh,8,1.00845,2,102.65,1,56.8983,0\Gh,8,1.00871,2,104.173,1,-57.058,0\Gh,8,1.7377,2,102.18,1,179.619,0\Gh,11,1.47743,8,107.51,2,60.5408,0\Gh,11,1.47754,8,107.481,2,-58.8187,0\Gh,11,1.4854,8,115.56,2,-179.118,0\\HF=-346.350509\MP2=-346.710316\\@

 Total job time:  138.70s(wall), 826.20s(cpu) 
 Wed Jul  3 19:24:41 2019

        *************************************************************
        *                                                           *
        *  Thank you very much for using Q-Chem.  Have a nice day.  *
        *                                                           *
        *************************************************************



Running Job 3 of 3 ../qm_inp/SiH3NH2_SiH3NH2_con1.200.qcinp
qchem ../qm_inp/SiH3NH2_SiH3NH2_con1.200.qcinp_16605.2 /scratch/xuedong/qchem16605/ 1
/home/qwang/software/qchem5.1.2/exe/qcprog.exe_s ../qm_inp/SiH3NH2_SiH3NH2_con1.200.qcinp_16605.2 /scratch/xuedong/qchem16605/
Check license passed

                  Welcome to Q-Chem
     A Quantum Leap Into The Future Of Chemistry


 Q-Chem 5.1, Q-Chem, Inc., Pleasanton, CA (2018)

 Yihan Shao,  Zhengting Gan,  E. Epifanovsky,  A. T. B. Gilbert,  M. Wormit,  
 J. Kussmann,  A. W. Lange,  A. Behn,  Jia Deng,  Xintian Feng,  D. Ghosh,  
 M. Goldey,  P. R. Horn,  L. D. Jacobson,  I. Kaliman,  T. Kus,  A. Landau,  
 Jie Liu,  E. I. Proynov,  R. M. Richard,  R. P. Steele,  E. J. Sundstrom,  
 H. L. Woodcock III,  P. M. Zimmerman,  D. Zuev,  B. Albrecht,  E. Alguire,  
 S. A. Baeppler,  D. Barton,  Z. Benda,  Y. A. Bernard,  E. J. Berquist,  
 K. B. Bravaya,  H. Burton,  D. Casanova,  Chun-Min Chang,  Yunqing Chen,  
 A. Chien,  K. D. Closser,  M. P. Coons,  S. Coriani,  S. Dasgupta,  
 A. L. Dempwolff,  M. Diedenhofen,  Hainam Do,  R. G. Edgar,  Po-Tung Fang,  
 S. Faraji,  S. Fatehi,  Qingguo Feng,  K. D. Fenk,  J. Fosso-Tande,  
 J. Gayvert,  Qinghui Ge,  A. Ghysels,  G. Gidofalvi,  J. Gomes,  
 J. Gonthier,  A. Gunina,  D. Hait,  M. W. D. Hanson-Heine,  
 P. H. P. Harbach,  A. W. Hauser,  J. E. Herr,  E. G. Hohenstein,  
 Z. C. Holden,  Kerwin Hui,  B. C. Huynh,  T.-C. Jagau,  Hyunjun Ji,  
 B. Kaduk,  K. Khistyaev,  Jaehoon Kim,  P. Klunzinger,  K. Koh,  
 D. Kosenkov,  L. Koulias,  T. Kowalczyk,  C. M. Krauter,  A. Kunitsa,  
 Ka Un Lao,  A. Laurent,  K. V. Lawler,  Joonho Lee,  D. Lefrancois,  
 S. Lehtola,  D. S. Levine,  Yi-Pei Li,  You-Sheng Lin,  Fenglai Liu,  
 E. Livshits,  A. Luenser,  P. Manohar,  E. Mansoor,  S. F. Manzer,  
 Shan-Ping Mao,  Yuezhi Mao,  N. Mardirossian,  A. V. Marenich,  
 T. Markovich,  L. A. Martinez-Martinez,  S. A. Maurer,  N. J. Mayhall,  
 S. C. McKenzie,  J.-M. Mewes,  A. F. Morrison,  J. W. Mullinax,  K. Nanda,  
 T. S. Nguyen-Beck,  R. Olivares-Amaya,  J. A. Parkhill,  T. M. Perrine,  
 F. Plasser,  P. Pokhilko,  S. Prager,  A. Prociuk,  E. Ramos,  D. R. Rehn,  
 F. Rob,  M. Schneider,  N. Sergueev,  S. M. Sharada,  S. Sharma,  
 D. W. Small,  T. Stauch,  T. Stein,  Yu-Chuan Su,  A. J. W. Thom,  
 A. Tkatchenko,  T. Tsuchimochi,  N. M. Tubman,  L. Vogt,  M. L. Vidal,  
 O. Vydrov,  M. A. Watson,  J. Wenzel,  M. de Wergifosse,  T. A. Wesolowski,  
 A. White,  J. Witte,  A. Yamada,  Jun Yang,  K. Yao,  S. Yeganeh,  
 S. R. Yost,  Zhi-Qiang You,  A. Zech,  Igor Ying Zhang,  Xing Zhang,  
 Yan Zhao,  Ying Zhu,  B. R. Brooks,  G. K. L. Chan,  C. J. Cramer,  
 M. S. Gordon,  W. J. Hehre,  A. Klamt,  M. W. Schmidt,  C. D. Sherrill,  
 D. G. Truhlar,  A. Aspuru-Guzik,  R. Baer,  A. T. Bell,  N. A. Besley,  
 Jeng-Da Chai,  A. E. DePrince, III,  R. A. DiStasio Jr.,  A. Dreuw,  
 B. D. Dunietz,  T. R. Furlani,  Chao-Ping Hsu,  Yousung Jung,  Jing Kong,  
 D. S. Lambrecht,  WanZhen Liang,  C. Ochsenfeld,  V. A. Rassolov,  
 L. V. Slipchenko,  J. E. Subotnik,  T. Van Voorhis,  J. M. Herbert,  
 A. I. Krylov,  P. M. W. Gill,  M. Head-Gordon

 Contributors to earlier versions of Q-Chem not listed above: 
 R. D. Adamson,  B. Austin,  J. Baker,  G. J. O. Beran,  K. Brandhorst,  
 S. T. Brown,  E. F. C. Byrd,  A. K. Chakraborty,  C.-L. Cheng,  
 Siu Hung Chien,  D. M. Chipman,  D. L. Crittenden,  H. Dachsel,  
 R. J. Doerksen,  A. D. Dutoi,  L. Fusti-Molnar,  W. A. Goddard III,  
 A. Golubeva-Zadorozhnaya,  S. R. Gwaltney,  G. Hawkins,  A. Heyden,  
 S. Hirata,  G. Kedziora,  F. J. Keil,  C. Kelley,  Jihan Kim,  R. A. King,  
 R. Z. Khaliullin,  P. P. Korambath,  W. Kurlancheek,  A. M. Lee,  M. S. Lee,  
 S. V. Levchenko,  Ching Yeh Lin,  D. Liotard,  R. C. Lochan,  I. Lotan,  
 P. E. Maslen,  N. Nair,  D. P. O'Neill,  D. Neuhauser,  E. Neuscamman,  
 C. M. Oana,  R. Olson,  B. Peters,  R. Peverati,  P. A. Pieniazek,  
 Y. M. Rhee,  J. Ritchie,  M. A. Rohrdanz,  E. Rosta,  N. J. Russ,  
 H. F. Schaefer III,  N. E. Schultz,  N. Shenvi,  A. C. Simmonett,  A. Sodt,  
 D. Stuck,  K. S. Thanthiriwatte,  V. Vanovschi,  Tao Wang,  A. Warshel,  
 C. F. Williams,  Q. Wu,  X. Xu,  W. Zhang

 Please cite Q-Chem as follows:
 Y. Shao et al., Mol. Phys. 113, 184-215 (2015)
 DOI: 10.1080/00268976.2014.952696

 Q-Chem 5.1.2 for Intel X86 EM64T Linux

 Parts of Q-Chem use Armadillo 8.300.2 (Tropical Shenanigans).
 http://arma.sourceforge.net/

 Q-Chem begins on Wed Jul  3 19:24:42 2019  

Host: 
0

     Scratch files written to /scratch/xuedong/qchem16605//
 Dec218 |scratch|qcdevops|jenkins|workspace|build_RNUM 6581   
Processing $rem in /home/qwang/software/qchem5.1.2/config/preferences.
 MEM_TOTAL  4000 
Core orbitals will be frozen
Input Ideriv = 1
Curr. Ideriv = -1
Max.  Ideriv = 1

Checking the input file for inconsistencies... 	...done.

--------------------------------------------------------------
User input:
--------------------------------------------------------------

$molecule
0 1
@Si    -1.603238946    -0.037666475    -0.093158434
@H     -1.351489209     0.587977452    -1.416517664
@H     -1.362259228    -1.490505278    -0.207462190
@H     -0.720166038     0.598793029     0.904338035
@N     -3.226075392     0.145065116     0.503430997
@H     -3.972557755    -0.323149309     0.014787982
@H     -3.532381265     1.064684992     0.778721563
Si     5.489500476     0.185172885     0.002912194
H    6.945298884     0.073706831    -0.270304748
H    5.227090452    -0.448672988     1.311414634
H    5.146814858     1.622022734     0.036967767
N    4.447637024    -0.572444213    -1.163334558
H    4.464801694    -1.578814198    -1.229784348
H    4.409170356    -0.177805771    -2.090564922
$end

$rem
BASIS = aug-cc-pVTZ
JOB_TYPE  =  SP
METHOD  =  MP2
SCF_MAX_CYCLES  =  200
$end

--------------------------------------------------------------
 ----------------------------------------------------------------
             Standard Nuclear Orientation (Angstroms)
    I     Atom           X                Y                Z
 ----------------------------------------------------------------
    1      GH     -1.6032389460    -0.0376664750    -0.0931584340
    2      GH     -1.3514892090     0.5879774520    -1.4165176640
    3      GH     -1.3622592280    -1.4905052780    -0.2074621900
    4      GH     -0.7201660380     0.5987930290     0.9043380350
    5      GH     -3.2260753920     0.1450651160     0.5034309970
    6      GH     -3.9725577550    -0.3231493090     0.0147879820
    7      GH     -3.5323812650     1.0646849920     0.7787215630
    8      Si      5.4895004760     0.1851728850     0.0029121940
    9      H       6.9452988840     0.0737068310    -0.2703047480
   10      H       5.2270904520    -0.4486729880     1.3114146340
   11      H       5.1468148580     1.6220227340     0.0369677670
   12      N       4.4476370240    -0.5724442130    -1.1633345580
   13      H       4.4648016940    -1.5788141980    -1.2297843480
   14      H       4.4091703560    -0.1778057710    -2.0905649220
 ----------------------------------------------------------------
 Nuclear Repulsion Energy =    64.6187012270 hartrees
 There are       13 alpha and       13 beta electrons
 Requested basis set is aug-cc-pVTZ
 There are 150 shells and 422 basis functions

 Total QAlloc Memory Limit   4000 MB
 Mega-Array Size       188 MB
 MEM_STATIC part       192 MB

                       Distance Matrix (Angstroms)
             GH(  1)   GH(  2)   GH(  3)   GH(  4)   GH(  5)   GH(  6)
   GH(  2)  1.485291
   GH(  3)  1.477118  2.404583
   GH(  4)  1.476448  2.405215  2.452254
   GH(  5)  1.738651  2.719641  2.579587  2.578018
   GH(  6)  2.388896  3.122305  2.868061  3.495616  1.007588
   GH(  7)  2.386827  3.130913  3.494422  2.853312  1.007625  1.644212
   Si(  8)  7.096889  6.998298  7.056824  6.288371  8.730028  9.475710
   H (  9)  8.551098  8.391363  8.453770  7.772699 10.201010 10.928786
   H ( 10)  6.985353  7.196803  6.841924  6.052500  8.512425  9.291422
   H ( 11)  6.952318  6.738681  7.219115  6.018371  8.514945  9.324545
   N ( 12)  6.168011  5.919505  5.959146  5.687992  7.885353  8.505869
   H ( 13)  6.363032  6.209597  5.916720  6.015010  8.070030  8.620597
   H ( 14)  6.337061  5.850296  6.211172  5.990212  8.070318  8.643321
             GH(  7)   Si(  8)   H (  9)   H ( 10)   H ( 11)   N ( 12)
   Si(  8)  9.097789
   H (  9) 10.576591  1.485403
   H ( 10)  8.905187  1.477430  2.393106
   H ( 11)  8.728646  1.477542  2.392957  2.432784
   N ( 12)  8.374513  1.737698  2.730078  2.597547  2.597164
   H ( 13)  8.658933  2.383527  3.131181  2.883747  3.509296  1.008707
   H ( 14)  8.534918  2.383592  3.131861  3.509391  2.882689  1.008452
             H ( 13)
   H ( 14)  1.645255
 
 A cutoff of  1.0D-08 yielded   7774 shell pairs
 There are     56670 function pairs (     71740 Cartesian)
 
 -------------------------------------------------------
 OpenMP Integral Computing Module                       
 Release: version 1.0, May 2013, Q-Chem Inc. Pittsburgh 
 -------------------------------------------------------
 Integral Job Info:
 Integral job number is                      11
 Integral operator is                         1
 short-range coefficients                     0
 long-range coefficients              100000000
 Omega coefficients                           0
 if combine SR and LR in K                    0
 Integral screening is                        0
 Integral computing path is                   2
 max size of driver memory is            800000
 size of driver memory is                776718
 size of scratch memory is             29531563
 max col of scratch BK array              10000
 max len of scratch array in speh3          662
 max len of scratch index in speh4           32
 max int batch size is                      520
 min int batch size is                       52
 fixed nKL is                                31
 max L of basis functions is                  3
 order of int derivative is                   0
 number of shells is                        150
 number of basis is                         478
 number of cartesian basis is               478
 number of contracted shell pairs          7774
 number of primitive shell pairs          23398
 maxK2 (contraction) of shell pair          169
 max number of K2 of shell pair               1
 max number of CS2 of shell pair           1465
 max number of PS2 of shell pair           2119
 mem total for path MDJ                  682364
 -------------------------------------------------------
 Smallest overlap matrix eigenvalue = 2.05E-05

 Q-Chem warning in module stvman/mkSTV.C, line 306:

 Overlap eigenvalue is smaller than square root of threshold
 Use THRESH >= 12 to get rid of this warning


 Scale SEOQF with 1.000000e-02/1.000000e-01/1.000000e-01

 Standard Electronic Orientation quadrupole field applied
 Nucleus-field energy     =     0.0000000012 hartrees
 Guess from superposition of atomic densities
 Warning:  Energy on first SCF cycle will be non-variational
 SAD guess density has 26.000000 electrons

 -----------------------------------------------------------------------
  General SCF calculation program by
  Eric Jon Sundstrom, Paul Horn, Yuezhi Mao, Dmitri Zuev, Alec White,
  David Stuck, Shaama M.S., Shane Yost, Joonho Lee, David Small,
  Daniel Levine, Susi Lehtola, Hugh Burton, Evgeny Epifanovsky
 -----------------------------------------------------------------------
 Hartree-Fock
 using 6 threads for integral computing
 -------------------------------------------------------
 OpenMP Integral computing Module                
 Release: version 1.0, May 2013, Q-Chem Inc. Pittsburgh 
 -------------------------------------------------------
 A restricted SCF calculation will be
 performed using DIIS
 SCF converges when DIIS error is below 1.0e-05
 ---------------------------------------
  Cycle       Energy         DIIS error
 ---------------------------------------
    1    -346.4374892566      1.19e-02  
    2    -346.3132740840      1.18e-03  
    3    -346.3439757100      5.53e-04  
    4    -346.3500149907      1.37e-04  
    5    -346.3506263152      1.82e-05  
    6    -346.3506436816      4.38e-06  Convergence criterion met
 ---------------------------------------
 SCF time:   CPU 214.72s  wall 36.00s 
 SCF   energy in the final basis set =     -346.3506436816
 Total energy in the final basis set =     -346.3506436816
 
 Components of the MP2 correlation energy:
        aaaa  correlation energy =        -0.0353267272 au
        abab  correlation energy =        -0.2891671192 au
        bbbb  correlation energy =        -0.0353267272 au
        non-Brillouin singles    =        -0.0000000000 au

 Total  MP2   correlation energy =                    -0.35982057 au
        MP2         total energy =                  -346.71046426 au
 
 --------------------------------------------------------------
 
                    Orbital Energies (a.u.)
 --------------------------------------------------------------
 
 Alpha MOs
 -- Occupied --
-68.779 -15.538  -6.125  -4.232  -4.232  -4.231  -1.136  -0.721
 -0.655  -0.553  -0.492  -0.476  -0.404
 -- Virtual --
  0.021   0.031   0.040   0.042   0.047   0.049   0.054   0.064
  0.065   0.067   0.074   0.075   0.082   0.084   0.085   0.091
  0.112   0.133   0.137   0.141   0.146   0.153   0.156   0.161
  0.164   0.169   0.177   0.179   0.186   0.188   0.192   0.196
  0.206   0.208   0.219   0.224   0.227   0.240   0.248   0.255
  0.261   0.271   0.272   0.281   0.286   0.297   0.301   0.303
  0.311   0.323   0.327   0.331   0.342   0.342   0.350   0.356
  0.359   0.364   0.373   0.378   0.386   0.391   0.396   0.402
  0.404   0.409   0.416   0.423   0.424   0.430   0.441   0.447
  0.447   0.462   0.467   0.470   0.474   0.481   0.491   0.494
  0.499   0.507   0.534   0.538   0.544   0.570   0.587   0.594
  0.602   0.610   0.629   0.637   0.643   0.647   0.649   0.657
  0.666   0.667   0.672   0.675   0.680   0.683   0.699   0.713
  0.717   0.720   0.732   0.734   0.740   0.766   0.771   0.783
  0.798   0.811   0.816   0.818   0.824   0.836   0.847   0.890
  0.916   0.923   0.925   0.927   0.931   0.944   0.959   0.962
  0.964   0.969   0.972   0.983   0.989   1.000   1.006   1.034
  1.035   1.040   1.043   1.051   1.062   1.067   1.078   1.084
  1.092   1.116   1.118   1.124   1.125   1.131   1.137   1.140
  1.151   1.159   1.165   1.166   1.173   1.182   1.187   1.195
  1.198   1.206   1.215   1.224   1.231   1.236   1.261   1.266
  1.282   1.287   1.289   1.297   1.299   1.310   1.333   1.338
  1.342   1.351   1.353   1.358   1.375   1.380   1.394   1.399
  1.412   1.418   1.432   1.447   1.455   1.456   1.479   1.488
  1.499   1.504   1.520   1.534   1.535   1.538   1.547   1.552
  1.569   1.581   1.599   1.615   1.658   1.666   1.683   1.691
  1.718   1.737   1.742   1.746   1.753   1.755   1.796   1.798
  1.802   1.867   1.871   1.884   1.927   1.936   1.941   1.963
  1.968   1.986   1.991   2.012   2.018   2.032   2.048   2.091
  2.097   2.102   2.123   2.132   2.139   2.174   2.200   2.219
  2.230   2.240   2.259   2.296   2.301   2.307   2.309   2.344
  2.365   2.381   2.388   2.433   2.454   2.476   2.485   2.497
  2.505   2.562   2.631   2.684   2.691   2.811   2.826   2.832
  2.840   2.888   2.945   2.974   3.060   3.107   3.113   3.124
  3.124   3.237   3.332   3.524   3.544   3.669   3.684   3.735
  3.743   3.752   3.770   3.958   3.985   4.000   4.010   4.020
  4.083   4.098   4.121   4.124   4.153   4.176   4.180   4.219
  4.229   4.234   4.242   4.258   4.263   4.279   4.290   4.305
  4.352   4.364   4.364   4.378   4.385   4.397   4.454   4.459
  4.467   4.471   4.472   4.496   4.499   4.535   4.544   4.549
  4.552   4.562   4.582   4.609   4.626   4.633   4.643   4.648
  4.656   4.664   4.722   4.728   4.737   4.775   4.792   4.803
  4.808   4.833   4.852   4.943   4.946   4.957   4.975   5.013
  5.034   5.063   5.090   5.098   5.115   5.119   5.130   5.153
  5.175   5.186   5.203   5.211   5.271   5.284   5.300   5.313
  5.332   5.340   5.387   5.406   5.411   5.442   5.521   5.527
  5.565   5.726   5.738   5.883   5.948   5.963   5.988   6.049
  6.056   6.095   6.171   6.190   6.191   6.202   6.361   6.472
  6.619   6.630   6.630   6.728   6.820   7.426   7.482   7.509
  7.601   7.749   7.806   8.092   8.686   9.292   9.325  10.088
 10.942  11.939  14.552  16.248  20.319  20.396  20.867  56.777
106.969
 --------------------------------------------------------------
 
          Ground-State Mulliken Net Atomic Charges

     Atom                 Charge (a.u.)
  ----------------------------------------
      1 GH                   -0.000596
      2 GH                    0.000225
      3 GH                    0.000139
      4 GH                   -0.000184
      5 GH                    0.000027
      6 GH                    0.000010
      7 GH                    0.000016
      8 Si                    1.076710
      9 H                    -0.329638
     10 H                    -0.281209
     11 H                    -0.280652
     12 N                    -0.439940
     13 H                     0.127516
     14 H                     0.127569
  ----------------------------------------
  Sum of atomic charges =    -0.000006

 -----------------------------------------------------------------
                    Cartesian Multipole Moments
 -----------------------------------------------------------------
    Charge (ESU x 10^10)
                -0.0000
    Dipole Moment (Debye)
         X       0.3158      Y      -0.6107      Z      -1.0119
       Tot       1.2233
    Quadrupole Moments (Debye-Ang)
        XX     -21.7816     XY      -2.9504     YY     -20.4598
        XZ      -4.7092     YZ       0.7277     ZZ     -19.3789
    Octopole Moments (Debye-Ang^2)
       XXX    -364.4906    XXY     -12.5421    XYY    -107.6236
       YYY      -4.5026    XXZ     -12.1709    XYZ       3.4871
       YYZ       4.8146    XZZ    -103.0693    YZZ       1.2391
       ZZZ      13.0758
    Hexadecapole Moments (Debye-Ang^3)
      XXXX   -3962.8530   XXXY     -55.9619   XXYY    -590.3794
      XYYY     -31.7922   YYYY     -62.6514   XXXZ      29.0355
      XXYZ      11.9039   XYYZ      21.1622   YYYZ      -8.2737
      XXZZ    -578.7443   XYZZ       3.9663   YYZZ     -26.5584
      XZZZ      57.4221   YZZZ     -13.3984   ZZZZ     -87.8469
 -----------------------------------------------------------------
Archival summary:
1\1\gm4.localdomain\SP\MP2\BasisUnspecified\i115h7\xuedong\WedJul319:27:012019WedJul319:27:012019\0\\#,MP2,BasisUnspecified,\\0,1\Si\H,1,1.47743\H,1,1.47754,2,110.83\H,1,1.4854,2,107.745,3,117.635,0\N,1,1.7377,2,107.51,3,-117.197,0\H,5,1.00845,1,117.992,2,172.161,0\H,5,1.00871,1,117.969,2,-52.9263,0\Gh,5,5.68799,1,102.18,2,60.5408,0\Gh,8,1.47645,5,102.067,1,179.619,0\Gh,9,1.47712,8,112.253,5,59.5963,0\Gh,9,1.48529,8,108.602,5,-60.3976,0\Gh,9,1.73865,8,106.328,5,175.547,0\Gh,12,1.00759,9,118.442,8,-172.797,0\Gh,12,1.00763,9,118.256,8,51.2347,0\\HF=-346.350644\MP2=-346.710464\\@

 Total job time:  139.44s(wall), 830.32s(cpu) 
 Wed Jul  3 19:27:01 2019

        *************************************************************
        *                                                           *
        *  Thank you very much for using Q-Chem.  Have a nice day.  *
        *                                                           *
        *************************************************************


