
Running Job 1 of 1 ../qm_inp/SiH3NH2_SiH3NH2_con2.080.qcinp
qchem ../qm_inp/SiH3NH2_SiH3NH2_con2.080.qcinp_26595.0 /scratch/xuedong/qchem26595/ 1
/home/qwang/software/qchem5.1.2/exe/qcprog.exe_s ../qm_inp/SiH3NH2_SiH3NH2_con2.080.qcinp_26595.0 /scratch/xuedong/qchem26595/
Check license passed

                  Welcome to Q-Chem
     A Quantum Leap Into The Future Of Chemistry


 Q-Chem 5.1, Q-Chem, Inc., Pleasanton, CA (2018)

 Yihan Shao,  Zhengting Gan,  E. Epifanovsky,  A. T. B. Gilbert,  M. Wormit,  
 J. Kussmann,  A. W. Lange,  A. Behn,  Jia Deng,  Xintian Feng,  D. Ghosh,  
 M. Goldey,  P. R. Horn,  L. D. Jacobson,  I. Kaliman,  T. Kus,  A. Landau,  
 Jie Liu,  E. I. Proynov,  R. M. Richard,  R. P. Steele,  E. J. Sundstrom,  
 H. L. Woodcock III,  P. M. Zimmerman,  D. Zuev,  B. Albrecht,  E. Alguire,  
 S. A. Baeppler,  D. Barton,  Z. Benda,  Y. A. Bernard,  E. J. Berquist,  
 K. B. Bravaya,  H. Burton,  D. Casanova,  Chun-Min Chang,  Yunqing Chen,  
 A. Chien,  K. D. Closser,  M. P. Coons,  S. Coriani,  S. Dasgupta,  
 A. L. Dempwolff,  M. Diedenhofen,  Hainam Do,  R. G. Edgar,  Po-Tung Fang,  
 S. Faraji,  S. Fatehi,  Qingguo Feng,  K. D. Fenk,  J. Fosso-Tande,  
 J. Gayvert,  Qinghui Ge,  A. Ghysels,  G. Gidofalvi,  J. Gomes,  
 J. Gonthier,  A. Gunina,  D. Hait,  M. W. D. Hanson-Heine,  
 P. H. P. Harbach,  A. W. Hauser,  J. E. Herr,  E. G. Hohenstein,  
 Z. C. Holden,  Kerwin Hui,  B. C. Huynh,  T.-C. Jagau,  Hyunjun Ji,  
 B. Kaduk,  K. Khistyaev,  Jaehoon Kim,  P. Klunzinger,  K. Koh,  
 D. Kosenkov,  L. Koulias,  T. Kowalczyk,  C. M. Krauter,  A. Kunitsa,  
 Ka Un Lao,  A. Laurent,  K. V. Lawler,  Joonho Lee,  D. Lefrancois,  
 S. Lehtola,  D. S. Levine,  Yi-Pei Li,  You-Sheng Lin,  Fenglai Liu,  
 E. Livshits,  A. Luenser,  P. Manohar,  E. Mansoor,  S. F. Manzer,  
 Shan-Ping Mao,  Yuezhi Mao,  N. Mardirossian,  A. V. Marenich,  
 T. Markovich,  L. A. Martinez-Martinez,  S. A. Maurer,  N. J. Mayhall,  
 S. C. McKenzie,  J.-M. Mewes,  A. F. Morrison,  J. W. Mullinax,  K. Nanda,  
 T. S. Nguyen-Beck,  R. Olivares-Amaya,  J. A. Parkhill,  T. M. Perrine,  
 F. Plasser,  P. Pokhilko,  S. Prager,  A. Prociuk,  E. Ramos,  D. R. Rehn,  
 F. Rob,  M. Schneider,  N. Sergueev,  S. M. Sharada,  S. Sharma,  
 D. W. Small,  T. Stauch,  T. Stein,  Yu-Chuan Su,  A. J. W. Thom,  
 A. Tkatchenko,  T. Tsuchimochi,  N. M. Tubman,  L. Vogt,  M. L. Vidal,  
 O. Vydrov,  M. A. Watson,  J. Wenzel,  M. de Wergifosse,  T. A. Wesolowski,  
 A. White,  J. Witte,  A. Yamada,  Jun Yang,  K. Yao,  S. Yeganeh,  
 S. R. Yost,  Zhi-Qiang You,  A. Zech,  Igor Ying Zhang,  Xing Zhang,  
 Yan Zhao,  Ying Zhu,  B. R. Brooks,  G. K. L. Chan,  C. J. Cramer,  
 M. S. Gordon,  W. J. Hehre,  A. Klamt,  M. W. Schmidt,  C. D. Sherrill,  
 D. G. Truhlar,  A. Aspuru-Guzik,  R. Baer,  A. T. Bell,  N. A. Besley,  
 Jeng-Da Chai,  A. E. DePrince, III,  R. A. DiStasio Jr.,  A. Dreuw,  
 B. D. Dunietz,  T. R. Furlani,  Chao-Ping Hsu,  Yousung Jung,  Jing Kong,  
 D. S. Lambrecht,  WanZhen Liang,  C. Ochsenfeld,  V. A. Rassolov,  
 L. V. Slipchenko,  J. E. Subotnik,  T. Van Voorhis,  J. M. Herbert,  
 A. I. Krylov,  P. M. W. Gill,  M. Head-Gordon

 Contributors to earlier versions of Q-Chem not listed above: 
 R. D. Adamson,  B. Austin,  J. Baker,  G. J. O. Beran,  K. Brandhorst,  
 S. T. Brown,  E. F. C. Byrd,  A. K. Chakraborty,  C.-L. Cheng,  
 Siu Hung Chien,  D. M. Chipman,  D. L. Crittenden,  H. Dachsel,  
 R. J. Doerksen,  A. D. Dutoi,  L. Fusti-Molnar,  W. A. Goddard III,  
 A. Golubeva-Zadorozhnaya,  S. R. Gwaltney,  G. Hawkins,  A. Heyden,  
 S. Hirata,  G. Kedziora,  F. J. Keil,  C. Kelley,  Jihan Kim,  R. A. King,  
 R. Z. Khaliullin,  P. P. Korambath,  W. Kurlancheek,  A. M. Lee,  M. S. Lee,  
 S. V. Levchenko,  Ching Yeh Lin,  D. Liotard,  R. C. Lochan,  I. Lotan,  
 P. E. Maslen,  N. Nair,  D. P. O'Neill,  D. Neuhauser,  E. Neuscamman,  
 C. M. Oana,  R. Olson,  B. Peters,  R. Peverati,  P. A. Pieniazek,  
 Y. M. Rhee,  J. Ritchie,  M. A. Rohrdanz,  E. Rosta,  N. J. Russ,  
 H. F. Schaefer III,  N. E. Schultz,  N. Shenvi,  A. C. Simmonett,  A. Sodt,  
 D. Stuck,  K. S. Thanthiriwatte,  V. Vanovschi,  Tao Wang,  A. Warshel,  
 C. F. Williams,  Q. Wu,  X. Xu,  W. Zhang

 Please cite Q-Chem as follows:
 Y. Shao et al., Mol. Phys. 113, 184-215 (2015)
 DOI: 10.1080/00268976.2014.952696

 Q-Chem 5.1.2 for Intel X86 EM64T Linux

 Parts of Q-Chem use Armadillo 8.300.2 (Tropical Shenanigans).
 http://arma.sourceforge.net/

 Q-Chem begins on Tue Jul  2 18:26:11 2019  

Host: 
0

     Scratch files written to /scratch/xuedong/qchem26595//
 Dec218 |scratch|qcdevops|jenkins|workspace|build_RNUM 6581   
Processing $rem in /home/qwang/software/qchem5.1.2/config/preferences.
 MEM_TOTAL  4000 
Core orbitals will be frozen
Input Ideriv = 1
Curr. Ideriv = -1
Max.  Ideriv = 1

Checking the input file for inconsistencies... 	...done.

--------------------------------------------------------------
User input:
--------------------------------------------------------------
$molecule
0 1
--
0 1
Si     2.701607000     0.125690888    -0.270400178
H     3.881940247    -0.764955877    -0.394351651
H     3.074781685     1.254572160     0.606696963
H     2.345683281     0.606987292    -1.620593772
N     1.274958878    -0.611037074     0.407064268
H     1.327705539    -0.932294968     1.362965471
H     0.821958737    -1.325136373    -0.145472211
--
0 1
Si    -2.069379774    -0.074728014    -0.275990742
H    -2.113404354     0.623830789    -1.588279328
H    -3.459134238    -0.133403456     0.228134991
H    -1.566757632    -1.444892443    -0.532359478
N    -1.058252948     0.619251357     0.939244627
H    -1.283606935     1.534991681     1.292639672
H    -0.059161329     0.520732990     0.802603827
$end

$rem
BASIS = aug-cc-pVTZ
JOB_TYPE  =  BSSE
METHOD  =  MP2
SCF_CONVERGENCE  =  8
SCF_MAX_CYCLES  =  200
$end

--------------------------------------------------------------
 ----------------------------------------------------------------
             Standard Nuclear Orientation (Angstroms)
    I     Atom           X                Y                Z
 ----------------------------------------------------------------
    1      Si     -2.4504249359    -0.1227956633     0.2535735272
    2      H      -3.6502309070    -0.6363348334    -0.4525039148
    3      H      -2.7768677945     1.2147643681     0.7895771551
    4      H      -2.1250197055    -1.0602270780     1.3475042574
    5      N      -1.0186355488     0.0435736267    -0.7258913471
    6      H      -1.0495320975     0.7101616419    -1.4838107199
    7      H      -0.5952593662    -0.8080325702    -1.0664247385
    8      Si      2.3138263463    -0.3927963994     0.0760260376
    9      H       2.3326630953    -1.1776411752     1.3392313861
   10      H       3.7163199140    -0.0345413081    -0.2300264329
   11      H       1.7785548076    -1.2848739770    -0.9791452680
   12      N       1.3515521034     1.0406364738     0.0670646135
   13      H       1.6040868304     1.7979868068     0.6809860280
   14      H       0.3472495945     0.9075562989     0.0520054744
 ----------------------------------------------------------------
 Molecular Point Group                 C1    NOp =  1
 Largest Abelian Subgroup              C1    NOp =  1
 Nuclear Repulsion Energy =   219.8637113822 hartrees
 There are       26 alpha and       26 beta electrons
 Requested basis set is aug-cc-pVTZ
 There are 150 shells and 422 basis functions

 Total QAlloc Memory Limit   4000 MB
 Mega-Array Size       188 MB
 MEM_STATIC part       192 MB

                       Distance Matrix (Angstroms)
             Si(  1)   H (  2)   H (  3)   H (  4)   N (  5)   H (  6)
   H (  2)  1.483847
   H (  3)  1.477475  2.394180
   H (  4)  1.476940  2.397078  2.431414
   N (  5)  1.742714  2.731723  2.599945  2.596427
   H (  6)  2.382189  3.104880  2.899415  3.508175  1.009820
   H (  7)  2.377727  3.120774  3.506546  2.868941  1.010170  1.638746
   Si(  8)  4.775198  5.992381  5.385961  4.665348  3.455256  3.868047
   H (  9)  5.016900  6.268839  5.668600  4.459237  4.121565  4.792975
   H ( 10)  6.186307  7.394439  6.690429  6.136928  4.761490  4.983965
   H ( 11)  4.555688  5.492692  5.488939  4.549907  3.106957  3.497561
   N ( 12)  3.980376  5.300945  4.194782  4.259073  2.690855  2.877435
   H ( 13)  4.506790  5.900727  4.420939  4.745510  3.454843  3.593244
   H ( 14)  2.988183  4.314856  3.224670  3.415055  1.793664  2.085353
             H (  7)   Si(  8)   H (  9)   H ( 10)   H ( 11)   N ( 12)
   Si(  8)  3.152839
   H (  9)  3.807430  1.487287
   H ( 10)  4.459548  1.479528  2.384062
   H ( 11)  2.422806  1.481791  2.386086  2.424757
   N ( 12)  2.914181  1.726494  2.738931  2.614650  2.585515
   H ( 13)  3.831697  2.381016  3.133444  2.941026  3.505782  1.007101
   H ( 14)  2.254430  2.357736  3.153865  3.509662  2.814011  1.013193
             H ( 13)
   H ( 14)  1.663768
 
 A cutoff of  1.0D-11 yielded  10725 shell pairs
 There are     84659 function pairs (    108940 Cartesian)
 
 -------------------------------------------------------
 OpenMP Integral Computing Module                       
 Release: version 1.0, May 2013, Q-Chem Inc. Pittsburgh 
 -------------------------------------------------------
 Integral Job Info:
 Integral job number is                      11
 Integral operator is                         1
 short-range coefficients                     0
 long-range coefficients              100000000
 Omega coefficients                           0
 if combine SR and LR in K                    0
 Integral screening is                        0
 Integral computing path is                   2
 max size of driver memory is            800000
 size of driver memory is                776718
 size of scratch memory is             29531563
 max col of scratch BK array              10000
 max len of scratch array in speh3          662
 max len of scratch index in speh4           32
 max int batch size is                      520
 min int batch size is                       52
 fixed nKL is                                31
 max L of basis functions is                  3
 order of int derivative is                   0
 number of shells is                        150
 number of basis is                         478
 number of cartesian basis is               478
 number of contracted shell pairs         10725
 number of primitive shell pairs          31504
 maxK2 (contraction) of shell pair          169
 max number of K2 of shell pair               1
 max number of CS2 of shell pair           1850
 max number of PS2 of shell pair           2886
 mem total for path MDJ                  768868
 -------------------------------------------------------
 Smallest overlap matrix eigenvalue = 1.50E-05

 Scale SEOQF with 1.000000e-01/1.000000e-01/1.000000e-01

 Standard Electronic Orientation quadrupole field applied
 Nucleus-field energy     =     0.0000000083 hartrees
 Guess MOs from converged MOs on fragments

-----------------------------------------------------------------
 SCF on fragment 1 out of 2
/home/qwang/software/qchem5.1.2/exe/qcprog.exe /scratch/xuedong/qchem26595/Frg1.input /scratch/xuedong/qchem26595/Frg1/ > /dev/null 
 SCF on fragment 2 out of 2
/home/qwang/software/qchem5.1.2/exe/qcprog.exe /scratch/xuedong/qchem26595/Frg2.input /scratch/xuedong/qchem26595/Frg2/ > /dev/null 
-----------------------------------------------------------------
 Done with SCF on isolated fragments
-----------------------------------------------------------------

 User-specified occupied guess orbitals will be used
 A restricted Hartree-Fock SCF calculation will be
 performed using Pulay DIIS extrapolation
 SCF converges when DIIS error is below 1.0E-08
 using 6 threads for integral computing
 -------------------------------------------------------
 OpenMP Integral computing Module                
 Release: version 1.0, May 2013, Q-Chem Inc. Pittsburgh 
 -------------------------------------------------------
 ---------------------------------------
  Cycle       Energy         DIIS Error
 ---------------------------------------
    1    -692.6797917852      5.52E-04
    2    -692.6896221042      1.32E-04
    3    -692.6904591718      4.49E-05
    4    -692.6905368748      1.89E-05
    5    -692.6905509457      4.15E-06
    6    -692.6905519005      8.93E-07
    7    -692.6905519539      2.38E-07
    8    -692.6905519569      1.06E-07
    9    -692.6905519574      2.58E-08
   10    -692.6905519575      7.83E-09 Convergence criterion met
 ---------------------------------------
 SCF time:  CPU 1306.81 s  wall 217.78 s

-----------------------------------------------------------------
 SCF CP correction for fragment 1 out of 2
/home/qwang/software/qchem5.1.2/exe/qcprog.exe /scratch/xuedong/qchem26595/Frg1.input /scratch/xuedong/qchem26595/Frg1BSSE/ > /dev/null 
 SCF CP correction for fragment 2 out of 2
/home/qwang/software/qchem5.1.2/exe/qcprog.exe /scratch/xuedong/qchem26595/Frg2.input /scratch/xuedong/qchem26595/Frg2BSSE/ > /dev/null 
-----------------------------------------------------------------
 Done with counterpoise correction on fragments
-----------------------------------------------------------------

 SCF   energy in the final basis set = -692.69055196
 Total energy in the final basis set = -692.69055196
 
 Components of the MP2 correlation energy:
        aaaa  correlation energy =        -0.0731702839 au
        abab  correlation energy =        -0.5839126131 au
        bbbb  correlation energy =        -0.0731702839 au
        non-Brillouin singles    =        -0.0000000000 au

 Total  MP2   correlation energy =                    -0.73025318 au
        MP2         total energy =                  -693.42080514 au
 
 --------------------------------------------------------------
 
                    Orbital Energies (a.u.)
 --------------------------------------------------------------
 
 Alpha MOs
 -- Occupied --
-68.790 -68.769 -15.550 -15.509  -6.136  -6.115  -4.243  -4.243
 -4.243  -4.221  -4.221  -4.221  -1.160  -1.111  -0.734  -0.710
 -0.669  -0.648  -0.568  -0.539  -0.499  -0.488  -0.480  -0.468
 -0.415  -0.384
 -- Virtual --
  0.026   0.039   0.041   0.041   0.054   0.059   0.061   0.063
  0.070   0.076   0.079   0.082   0.086   0.094   0.101   0.108
  0.132   0.135   0.146   0.150   0.154   0.155   0.163   0.170
  0.172   0.177   0.184   0.191   0.197   0.203   0.208   0.213
  0.215   0.220   0.235   0.237   0.248   0.258   0.260   0.269
  0.280   0.282   0.287   0.302   0.307   0.315   0.319   0.322
  0.332   0.337   0.343   0.347   0.354   0.362   0.368   0.373
  0.380   0.385   0.392   0.402   0.405   0.410   0.413   0.418
  0.426   0.432   0.442   0.450   0.458   0.464   0.472   0.478
  0.481   0.488   0.502   0.507   0.511   0.522   0.532   0.545
  0.552   0.562   0.572   0.575   0.589   0.597   0.611   0.615
  0.619   0.628   0.633   0.638   0.643   0.650   0.654   0.668
  0.673   0.679   0.685   0.686   0.693   0.698   0.704   0.719
  0.726   0.734   0.740   0.756   0.766   0.781   0.801   0.816
  0.828   0.853   0.858   0.876   0.883   0.899   0.910   0.920
  0.930   0.944   0.962   0.965   0.978   0.982   0.986   0.993
  1.002   1.004   1.008   1.011   1.030   1.040   1.048   1.063
  1.068   1.075   1.085   1.096   1.099   1.108   1.117   1.127
  1.141   1.146   1.149   1.166   1.171   1.176   1.182   1.196
  1.200   1.210   1.211   1.220   1.226   1.235   1.248   1.251
  1.263   1.277   1.280   1.284   1.295   1.301   1.310   1.314
  1.325   1.333   1.339   1.346   1.354   1.365   1.366   1.375
  1.384   1.398   1.401   1.410   1.420   1.425   1.430   1.442
  1.444   1.462   1.473   1.480   1.491   1.496   1.505   1.510
  1.516   1.525   1.528   1.550   1.570   1.581   1.594   1.605
  1.628   1.633   1.643   1.662   1.671   1.685   1.728   1.753
  1.765   1.772   1.793   1.800   1.828   1.859   1.864   1.870
  1.884   1.906   1.919   1.930   1.951   1.957   1.989   2.003
  2.021   2.027   2.049   2.063   2.073   2.080   2.096   2.109
  2.119   2.138   2.149   2.172   2.187   2.202   2.223   2.238
  2.247   2.264   2.268   2.287   2.297   2.306   2.349   2.373
  2.392   2.421   2.429   2.454   2.454   2.477   2.511   2.517
  2.552   2.598   2.632   2.642   2.706   2.745   2.814   2.881
  3.003   3.152   3.173   3.223   3.258   3.304   3.439   3.455
  3.661   3.687   3.700   3.730   3.743   3.762   3.826   3.886
  3.902   3.950   3.988   4.011   4.034   4.044   4.054   4.066
  4.083   4.102   4.115   4.121   4.124   4.141   4.151   4.159
  4.176   4.183   4.194   4.199   4.210   4.227   4.231   4.242
  4.258   4.273   4.284   4.291   4.310   4.331   4.340   4.359
  4.369   4.393   4.403   4.429   4.455   4.484   4.497   4.511
  4.538   4.544   4.562   4.573   4.582   4.585   4.601   4.609
  4.628   4.642   4.650   4.681   4.704   4.712   4.749   4.770
  4.785   4.792   4.798   4.820   4.827   4.845   4.848   4.864
  4.875   4.883   4.911   4.933   4.972   4.987   5.020   5.058
  5.075   5.087   5.116   5.133   5.164   5.186   5.207   5.218
  5.250   5.278   5.302   5.339   5.351   5.401   5.423   5.472
  5.505   5.554   5.616   5.661   5.672   5.742   5.893   5.989
  6.031   6.099   6.107   6.171   6.173   6.246   6.312   6.389
  6.577   6.652   6.723   6.851   6.965   7.023   7.840   7.873
  8.949   9.153  17.287  17.522
 --------------------------------------------------------------
 
          Ground-State Mulliken Net Atomic Charges

     Atom                 Charge (a.u.)
  ----------------------------------------
      1 Si                    1.022447
      2 H                    -0.387665
      3 H                    -0.300132
      4 H                    -0.311570
      5 N                     0.017775
      6 H                     0.036797
      7 H                     0.051128
      8 Si                    1.092352
      9 H                    -0.363020
     10 H                    -0.355539
     11 H                    -0.308456
     12 N                    -0.544594
     13 H                     0.099543
     14 H                     0.250936
  ----------------------------------------
  Sum of atomic charges =     0.000000

 -----------------------------------------------------------------
                    Cartesian Multipole Moments
 -----------------------------------------------------------------
    Charge (ESU x 10^10)
                -0.0000
    Dipole Moment (Debye)
         X      -1.5173      Y       0.1637      Z      -0.4007
       Tot       1.5778
    Quadrupole Moments (Debye-Ang)
        XX     -48.1516     XY      -0.0806     YY     -43.6358
        XZ       2.1314     YZ       1.8560     ZZ     -43.5706
    Octopole Moments (Debye-Ang^2)
       XXX      -3.4237    XXY       5.1991    XYY       0.1595
       YYY       7.3068    XXZ       3.5841    XYZ       6.5016
       YYZ      -0.5203    XZZ      -3.2786    YZZ       5.5846
       ZZZ      -7.9955
    Hexadecapole Moments (Debye-Ang^3)
      XXXX   -1379.8601   XXXY       2.2268   XXYY    -247.2016
      XYYY      12.4242   YYYY    -161.6801   XXXZ      -1.4203
      XXYZ       4.3424   XYYZ      11.9695   YYYZ       9.7881
      XXZZ    -241.3638   XYZZ       3.8413   YYZZ     -49.4259
      XZZZ       6.8274   YZZZ       1.3140   ZZZZ    -128.7994
 -----------------------------------------------------------------

 ---------------------------------------------------------------------
 *                     Fragment's binding energy                     *
 ---------------------------------------------------------------------
    Fragment           E(TOTAL)         E(CP-CORR)           DE(BSSE)
 ---------------------------------------------------------------------
           1    -346.7103320648    -346.7114269554       0.0010948906
           2    -346.7101939122    -346.7108925046       0.0006985924
     Complex    -693.4208051383
 ---------------------------------------------------------------------
  DE, kJ/mol      -0.7329466914       3.9758987492
 ---------------------------------------------------------------------

Archival summary:
1\1\mm2.localdomain\SP\MP2\BasisUnspecified\i2210\xuedong\TueJul218:53:372019TueJul218:53:372019\0\\#,MP2,BasisUnspecified,\\0,1\Si\H,1,1.47953\H,1,1.48179,2,109.932\H,1,1.48729,2,106.946,3,115.775,0\N,1,1.72649,2,109.04,3,-117.186,0\H,5,1.0071,1,118.779,2,-57.0413,0\H,5,1.01319,1,116.327,2,166.451,0\N,7,1.79366,5,145.542,1,-48.0629,0\H,8,1.00982,7,91.7674,5,-82.8235,0\H,8,1.01017,7,103.481,5,26.6161,0\Si,8,1.74271,7,115.333,5,155.611,0\H,11,1.47694,8,107.209,7,-68.9675,0\H,11,1.47747,8,107.397,7,50.1133,0\H,11,1.48385,8,115.462,7,170.502,0\\HF=-692.690552\MP2=-693.420805\\@

 Total job time:  1646.57s(wall), 4545.52s(cpu) 
 Tue Jul  2 18:53:37 2019

        *************************************************************
        *                                                           *
        *  Thank you very much for using Q-Chem.  Have a nice day.  *
        *                                                           *
        *************************************************************


