
Running Job 1 of 1 ../qm_inp/SiH3NH2_SiH3NH2_con1.095.qcinp
qchem ../qm_inp/SiH3NH2_SiH3NH2_con1.095.qcinp_22781.0 /scratch/xuedong/qchem22781/ 1
/home/qwang/software/qchem5.1.2/exe/qcprog.exe_s ../qm_inp/SiH3NH2_SiH3NH2_con1.095.qcinp_22781.0 /scratch/xuedong/qchem22781/
Check license passed

                  Welcome to Q-Chem
     A Quantum Leap Into The Future Of Chemistry


 Q-Chem 5.1, Q-Chem, Inc., Pleasanton, CA (2018)

 Yihan Shao,  Zhengting Gan,  E. Epifanovsky,  A. T. B. Gilbert,  M. Wormit,  
 J. Kussmann,  A. W. Lange,  A. Behn,  Jia Deng,  Xintian Feng,  D. Ghosh,  
 M. Goldey,  P. R. Horn,  L. D. Jacobson,  I. Kaliman,  T. Kus,  A. Landau,  
 Jie Liu,  E. I. Proynov,  R. M. Richard,  R. P. Steele,  E. J. Sundstrom,  
 H. L. Woodcock III,  P. M. Zimmerman,  D. Zuev,  B. Albrecht,  E. Alguire,  
 S. A. Baeppler,  D. Barton,  Z. Benda,  Y. A. Bernard,  E. J. Berquist,  
 K. B. Bravaya,  H. Burton,  D. Casanova,  Chun-Min Chang,  Yunqing Chen,  
 A. Chien,  K. D. Closser,  M. P. Coons,  S. Coriani,  S. Dasgupta,  
 A. L. Dempwolff,  M. Diedenhofen,  Hainam Do,  R. G. Edgar,  Po-Tung Fang,  
 S. Faraji,  S. Fatehi,  Qingguo Feng,  K. D. Fenk,  J. Fosso-Tande,  
 J. Gayvert,  Qinghui Ge,  A. Ghysels,  G. Gidofalvi,  J. Gomes,  
 J. Gonthier,  A. Gunina,  D. Hait,  M. W. D. Hanson-Heine,  
 P. H. P. Harbach,  A. W. Hauser,  J. E. Herr,  E. G. Hohenstein,  
 Z. C. Holden,  Kerwin Hui,  B. C. Huynh,  T.-C. Jagau,  Hyunjun Ji,  
 B. Kaduk,  K. Khistyaev,  Jaehoon Kim,  P. Klunzinger,  K. Koh,  
 D. Kosenkov,  L. Koulias,  T. Kowalczyk,  C. M. Krauter,  A. Kunitsa,  
 Ka Un Lao,  A. Laurent,  K. V. Lawler,  Joonho Lee,  D. Lefrancois,  
 S. Lehtola,  D. S. Levine,  Yi-Pei Li,  You-Sheng Lin,  Fenglai Liu,  
 E. Livshits,  A. Luenser,  P. Manohar,  E. Mansoor,  S. F. Manzer,  
 Shan-Ping Mao,  Yuezhi Mao,  N. Mardirossian,  A. V. Marenich,  
 T. Markovich,  L. A. Martinez-Martinez,  S. A. Maurer,  N. J. Mayhall,  
 S. C. McKenzie,  J.-M. Mewes,  A. F. Morrison,  J. W. Mullinax,  K. Nanda,  
 T. S. Nguyen-Beck,  R. Olivares-Amaya,  J. A. Parkhill,  T. M. Perrine,  
 F. Plasser,  P. Pokhilko,  S. Prager,  A. Prociuk,  E. Ramos,  D. R. Rehn,  
 F. Rob,  M. Schneider,  N. Sergueev,  S. M. Sharada,  S. Sharma,  
 D. W. Small,  T. Stauch,  T. Stein,  Yu-Chuan Su,  A. J. W. Thom,  
 A. Tkatchenko,  T. Tsuchimochi,  N. M. Tubman,  L. Vogt,  M. L. Vidal,  
 O. Vydrov,  M. A. Watson,  J. Wenzel,  M. de Wergifosse,  T. A. Wesolowski,  
 A. White,  J. Witte,  A. Yamada,  Jun Yang,  K. Yao,  S. Yeganeh,  
 S. R. Yost,  Zhi-Qiang You,  A. Zech,  Igor Ying Zhang,  Xing Zhang,  
 Yan Zhao,  Ying Zhu,  B. R. Brooks,  G. K. L. Chan,  C. J. Cramer,  
 M. S. Gordon,  W. J. Hehre,  A. Klamt,  M. W. Schmidt,  C. D. Sherrill,  
 D. G. Truhlar,  A. Aspuru-Guzik,  R. Baer,  A. T. Bell,  N. A. Besley,  
 Jeng-Da Chai,  A. E. DePrince, III,  R. A. DiStasio Jr.,  A. Dreuw,  
 B. D. Dunietz,  T. R. Furlani,  Chao-Ping Hsu,  Yousung Jung,  Jing Kong,  
 D. S. Lambrecht,  WanZhen Liang,  C. Ochsenfeld,  V. A. Rassolov,  
 L. V. Slipchenko,  J. E. Subotnik,  T. Van Voorhis,  J. M. Herbert,  
 A. I. Krylov,  P. M. W. Gill,  M. Head-Gordon

 Contributors to earlier versions of Q-Chem not listed above: 
 R. D. Adamson,  B. Austin,  J. Baker,  G. J. O. Beran,  K. Brandhorst,  
 S. T. Brown,  E. F. C. Byrd,  A. K. Chakraborty,  C.-L. Cheng,  
 Siu Hung Chien,  D. M. Chipman,  D. L. Crittenden,  H. Dachsel,  
 R. J. Doerksen,  A. D. Dutoi,  L. Fusti-Molnar,  W. A. Goddard III,  
 A. Golubeva-Zadorozhnaya,  S. R. Gwaltney,  G. Hawkins,  A. Heyden,  
 S. Hirata,  G. Kedziora,  F. J. Keil,  C. Kelley,  Jihan Kim,  R. A. King,  
 R. Z. Khaliullin,  P. P. Korambath,  W. Kurlancheek,  A. M. Lee,  M. S. Lee,  
 S. V. Levchenko,  Ching Yeh Lin,  D. Liotard,  R. C. Lochan,  I. Lotan,  
 P. E. Maslen,  N. Nair,  D. P. O'Neill,  D. Neuhauser,  E. Neuscamman,  
 C. M. Oana,  R. Olson,  B. Peters,  R. Peverati,  P. A. Pieniazek,  
 Y. M. Rhee,  J. Ritchie,  M. A. Rohrdanz,  E. Rosta,  N. J. Russ,  
 H. F. Schaefer III,  N. E. Schultz,  N. Shenvi,  A. C. Simmonett,  A. Sodt,  
 D. Stuck,  K. S. Thanthiriwatte,  V. Vanovschi,  Tao Wang,  A. Warshel,  
 C. F. Williams,  Q. Wu,  X. Xu,  W. Zhang

 Please cite Q-Chem as follows:
 Y. Shao et al., Mol. Phys. 113, 184-215 (2015)
 DOI: 10.1080/00268976.2014.952696

 Q-Chem 5.1.2 for Intel X86 EM64T Linux

 Parts of Q-Chem use Armadillo 8.300.2 (Tropical Shenanigans).
 http://arma.sourceforge.net/

 Q-Chem begins on Tue Jul  2 11:01:46 2019  

Host: 
0

     Scratch files written to /scratch/xuedong/qchem22781//
 Dec218 |scratch|qcdevops|jenkins|workspace|build_RNUM 6581   
Processing $rem in /home/qwang/software/qchem5.1.2/config/preferences.
 MEM_TOTAL  4000 
Core orbitals will be frozen
Input Ideriv = 1
Curr. Ideriv = -1
Max.  Ideriv = 1

Checking the input file for inconsistencies... 	...done.

--------------------------------------------------------------
User input:
--------------------------------------------------------------
$molecule
0 1
--
0 1
Si    -1.603238946    -0.037666475    -0.093158434
H    -1.351489209     0.587977452    -1.416517664
H    -1.362259228    -1.490505278    -0.207462190
H    -0.720166038     0.598793029     0.904338035
N    -3.226075392     0.145065116     0.503430997
H    -3.972557755    -0.323149309     0.014787982
H    -3.532381265     1.064684992     0.778721563
--
0 1
Si     2.291440430     0.229281434     0.216497664
H     3.747238838     0.117815380    -0.056719278
H     2.029030406    -0.404564439     1.525000105
H     1.948754811     1.666131283     0.250553238
N     1.249576978    -0.528335664    -0.949749088
H     1.266741648    -1.534705649    -1.016198877
H     1.211110309    -0.133697222    -1.876979452
$end

$rem
BASIS = aug-cc-pVTZ
JOB_TYPE  =  BSSE
METHOD  =  MP2
SCF_CONVERGENCE  =  8
SCF_MAX_CYCLES  =  200
$end

--------------------------------------------------------------
 ----------------------------------------------------------------
             Standard Nuclear Orientation (Angstroms)
    I     Atom           X                Y                Z
 ----------------------------------------------------------------
    1      Si     -1.5035819087    -0.1303801081    -0.0299952822
    2      H      -1.1842818242    -0.8777932446    -1.2731802905
    3      H      -1.2509094513    -1.0136920395     1.1266350917
    4      H      -0.6774948105     1.0926954851     0.0095504636
    5      N      -3.1566201324     0.3917444965     0.1032655232
    6      H      -3.8740982384    -0.3081277527     0.2063997294
    7      H      -3.4809147407     1.1128829699    -0.5213153035
    8      Si      2.3679554678     0.4566161559     0.0180594329
    9      H       3.8366819057     0.2355098328    -0.0013268388
   10      H       2.0388350582     1.1866319716     1.2596531323
   11      H       2.0180611495     1.2594722833    -1.1719517893
   12      N       1.3927869717    -0.9812296986    -0.0171585921
   13      H       1.4175870943    -1.5894778760     0.7871484734
   14      H       1.4021361551    -1.5390098840    -0.8572592944
 ----------------------------------------------------------------
 Molecular Point Group                 C1    NOp =  1
 Largest Abelian Subgroup              C1    NOp =  1
 Nuclear Repulsion Energy =   217.4366842798 hartrees
 There are       26 alpha and       26 beta electrons
 Requested basis set is aug-cc-pVTZ
 There are 150 shells and 422 basis functions

 Total QAlloc Memory Limit   4000 MB
 Mega-Array Size       188 MB
 MEM_STATIC part       192 MB

                       Distance Matrix (Angstroms)
             Si(  1)   H (  2)   H (  3)   H (  4)   N (  5)   H (  6)
   H (  2)  1.485291
   H (  3)  1.477118  2.404583
   H (  4)  1.476448  2.405215  2.452254
   N (  5)  1.738651  2.719641  2.579587  2.578018
   H (  6)  2.388896  3.122305  2.868061  3.495616  1.007588
   H (  7)  2.386827  3.130913  3.494422  2.853312  1.007625  1.644212
   Si(  8)  3.916079  4.008284  4.060410  3.111179  5.525613  6.291545
   H (  9)  5.352860  5.297842  5.358768  4.594853  6.995829  7.732711
   H ( 10)  3.993298  4.589725  3.959992  2.991660  5.381620  6.189219
   H ( 11)  3.954456  3.851383  4.597493  2.947844  5.399672  6.250981
   N ( 12)  3.018785  2.868723  2.880703  2.930520  4.753595  5.314426
   H ( 13)  3.365994  3.394285  2.750937  3.491143  5.031532  5.475496
   H ( 14)  3.333437  2.701806  3.354169  3.464404  5.043082  5.521331
             H (  7)   Si(  8)   H (  9)   H ( 10)   H ( 11)   N ( 12)
   Si(  8)  5.910236
   H (  9)  7.388328  1.485403
   H ( 10)  5.800425  1.477430  2.393106
   H ( 11)  5.539274  1.477542  2.392957  2.432784
   N ( 12)  5.328457  1.737698  2.730078  2.597547  2.597164
   H ( 13)  5.745446  2.383527  3.131181  2.883747  3.509296  1.008707
   H ( 14)  5.566829  2.383592  3.131861  3.509391  2.882689  1.008452
             H ( 13)
   H ( 14)  1.645255
 
 A cutoff of  1.0D-11 yielded  10451 shell pairs
 There are     81949 function pairs (    105184 Cartesian)
 
 -------------------------------------------------------
 OpenMP Integral Computing Module                       
 Release: version 1.0, May 2013, Q-Chem Inc. Pittsburgh 
 -------------------------------------------------------
 Integral Job Info:
 Integral job number is                      11
 Integral operator is                         1
 short-range coefficients                     0
 long-range coefficients              100000000
 Omega coefficients                           0
 if combine SR and LR in K                    0
 Integral screening is                        0
 Integral computing path is                   2
 max size of driver memory is            800000
 size of driver memory is                776718
 size of scratch memory is             29531563
 max col of scratch BK array              10000
 max len of scratch array in speh3          662
 max len of scratch index in speh4           32
 max int batch size is                      520
 min int batch size is                       52
 fixed nKL is                                31
 max L of basis functions is                  3
 order of int derivative is                   0
 number of shells is                        150
 number of basis is                         478
 number of cartesian basis is               478
 number of contracted shell pairs         10451
 number of primitive shell pairs          31250
 maxK2 (contraction) of shell pair          169
 max number of K2 of shell pair               1
 max number of CS2 of shell pair           1812
 max number of PS2 of shell pair           3055
 mem total for path MDJ                  762860
 -------------------------------------------------------
 Smallest overlap matrix eigenvalue = 1.36E-05

 Scale SEOQF with 1.000000e-01/1.000000e-01/1.000000e-01

 Standard Electronic Orientation quadrupole field applied
 Nucleus-field energy     =     0.0000000098 hartrees
 Guess MOs from converged MOs on fragments

-----------------------------------------------------------------
 SCF on fragment 1 out of 2
/home/qwang/software/qchem5.1.2/exe/qcprog.exe /scratch/xuedong/qchem22781/Frg1.input /scratch/xuedong/qchem22781/Frg1/ > /dev/null 
 SCF on fragment 2 out of 2
/home/qwang/software/qchem5.1.2/exe/qcprog.exe /scratch/xuedong/qchem22781/Frg2.input /scratch/xuedong/qchem22781/Frg2/ > /dev/null 
-----------------------------------------------------------------
 Done with SCF on isolated fragments
-----------------------------------------------------------------

 User-specified occupied guess orbitals will be used
 A restricted Hartree-Fock SCF calculation will be
 performed using Pulay DIIS extrapolation
 SCF converges when DIIS error is below 1.0E-08
 using 6 threads for integral computing
 -------------------------------------------------------
 OpenMP Integral computing Module                
 Release: version 1.0, May 2013, Q-Chem Inc. Pittsburgh 
 -------------------------------------------------------
 ---------------------------------------
  Cycle       Energy         DIIS Error
 ---------------------------------------
    1    -692.6951124896      2.66E-04
    2    -692.6984421604      6.78E-05
    3    -692.6987214710      2.74E-05
    4    -692.6987499688      9.57E-06
    5    -692.6987543898      1.73E-06
    6    -692.6987545728      4.75E-07
    7    -692.6987545853      1.23E-07
    8    -692.6987545862      4.68E-08
    9    -692.6987545863      1.56E-08
   10    -692.6987545863      5.80E-09 Convergence criterion met
 ---------------------------------------
 SCF time:  CPU 1138.68 s  wall 189.76 s

-----------------------------------------------------------------
 SCF CP correction for fragment 1 out of 2
/home/qwang/software/qchem5.1.2/exe/qcprog.exe /scratch/xuedong/qchem22781/Frg1.input /scratch/xuedong/qchem22781/Frg1BSSE/ > /dev/null 
 SCF CP correction for fragment 2 out of 2
/home/qwang/software/qchem5.1.2/exe/qcprog.exe /scratch/xuedong/qchem22781/Frg2.input /scratch/xuedong/qchem22781/Frg2BSSE/ > /dev/null 
-----------------------------------------------------------------
 Done with counterpoise correction on fragments
-----------------------------------------------------------------

 SCF   energy in the final basis set = -692.69875459
 Total energy in the final basis set = -692.69875459
 
 Components of the MP2 correlation energy:
        aaaa  correlation energy =        -0.0722434966 au
        abab  correlation energy =        -0.5821592510 au
        bbbb  correlation energy =        -0.0722434966 au
        non-Brillouin singles    =        -0.0000000000 au

 Total  MP2   correlation energy =                    -0.72664624 au
        MP2         total energy =                  -693.42540083 au
 
 --------------------------------------------------------------
 
                    Orbital Energies (a.u.)
 --------------------------------------------------------------
 
 Alpha MOs
 -- Occupied --
-68.780 -68.767 -15.541 -15.525  -6.126  -6.113  -4.233  -4.233
 -4.233  -4.219  -4.219  -4.219  -1.141  -1.124  -0.724  -0.710
 -0.660  -0.644  -0.557  -0.545  -0.494  -0.478  -0.477  -0.465
 -0.407  -0.390
 -- Virtual --
  0.027   0.034   0.041   0.047   0.052   0.056   0.062   0.067
  0.071   0.075   0.083   0.087   0.089   0.096   0.107   0.115
  0.126   0.140   0.142   0.150   0.155   0.163   0.170   0.172
  0.176   0.178   0.186   0.187   0.194   0.197   0.206   0.219
  0.225   0.236   0.241   0.249   0.254   0.264   0.277   0.281
  0.283   0.285   0.292   0.297   0.304   0.320   0.324   0.328
  0.330   0.334   0.342   0.346   0.363   0.366   0.368   0.372
  0.378   0.388   0.395   0.397   0.402   0.406   0.410   0.414
  0.418   0.420   0.428   0.438   0.453   0.456   0.467   0.473
  0.475   0.485   0.496   0.506   0.511   0.519   0.529   0.537
  0.546   0.558   0.571   0.583   0.593   0.605   0.612   0.620
  0.627   0.637   0.641   0.643   0.647   0.654   0.658   0.676
  0.682   0.688   0.692   0.694   0.706   0.710   0.717   0.718
  0.723   0.740   0.752   0.755   0.773   0.779   0.805   0.817
  0.830   0.842   0.870   0.877   0.893   0.902   0.922   0.929
  0.937   0.939   0.942   0.954   0.959   0.966   0.976   0.985
  0.997   1.009   1.014   1.034   1.040   1.044   1.046   1.054
  1.061   1.064   1.074   1.082   1.084   1.109   1.114   1.117
  1.132   1.136   1.143   1.149   1.151   1.164   1.166   1.172
  1.188   1.194   1.212   1.217   1.231   1.233   1.239   1.248
  1.257   1.261   1.269   1.275   1.287   1.288   1.293   1.304
  1.319   1.324   1.327   1.340   1.349   1.365   1.369   1.378
  1.380   1.388   1.395   1.409   1.416   1.422   1.436   1.446
  1.447   1.456   1.462   1.465   1.482   1.485   1.499   1.517
  1.523   1.532   1.538   1.541   1.564   1.575   1.583   1.600
  1.622   1.625   1.644   1.663   1.681   1.693   1.722   1.748
  1.759   1.770   1.773   1.789   1.794   1.826   1.851   1.866
  1.884   1.893   1.908   1.915   1.944   1.958   1.964   1.970
  1.981   2.001   2.010   2.037   2.052   2.059   2.074   2.079
  2.112   2.125   2.132   2.154   2.156   2.186   2.222   2.224
  2.244   2.261   2.262   2.270   2.272   2.288   2.311   2.320
  2.326   2.351   2.390   2.393   2.425   2.436   2.472   2.485
  2.500   2.505   2.513   2.532   2.560   2.581   2.717   2.728
  2.930   3.015   3.130   3.213   3.221   3.295   3.447   3.476
  3.629   3.695   3.704   3.735   3.746   3.772   3.781   3.804
  3.880   3.915   3.989   4.000   4.027   4.045   4.067   4.080
  4.098   4.105   4.122   4.134   4.148   4.155   4.171   4.175
  4.183   4.197   4.202   4.208   4.223   4.235   4.238   4.253
  4.264   4.279   4.284   4.295   4.311   4.322   4.328   4.343
  4.370   4.397   4.411   4.429   4.433   4.454   4.472   4.490
  4.514   4.524   4.531   4.544   4.550   4.573   4.583   4.592
  4.602   4.630   4.638   4.647   4.689   4.713   4.719   4.736
  4.767   4.768   4.771   4.784   4.822   4.831   4.842   4.860
  4.870   4.880   4.882   4.904   4.920   4.990   5.006   5.027
  5.056   5.103   5.116   5.129   5.140   5.173   5.173   5.188
  5.208   5.235   5.269   5.279   5.333   5.348   5.370   5.408
  5.443   5.472   5.536   5.592   5.596   5.605   5.918   5.931
  5.979   5.997   6.065   6.075   6.180   6.200   6.204   6.210
  6.503   6.561   6.628   6.640   6.750   6.802   7.779   7.806
  9.100   9.253  16.323  16.621
 --------------------------------------------------------------
 
          Ground-State Mulliken Net Atomic Charges

     Atom                 Charge (a.u.)
  ----------------------------------------
      1 Si                    1.300260
      2 H                    -0.306063
      3 H                    -0.247401
      4 H                    -0.225015
      5 N                    -0.725851
      6 H                     0.110574
      7 H                     0.113736
      8 Si                    1.213896
      9 H                    -0.588630
     10 H                    -0.255131
     11 H                    -0.251377
     12 N                    -0.327676
     13 H                     0.090735
     14 H                     0.097943
  ----------------------------------------
  Sum of atomic charges =     0.000000

 -----------------------------------------------------------------
                    Cartesian Multipole Moments
 -----------------------------------------------------------------
    Charge (ESU x 10^10)
                 0.0000
    Dipole Moment (Debye)
         X       0.0523      Y      -1.3874      Z      -0.8004
       Tot       1.6026
    Quadrupole Moments (Debye-Ang)
        XX     -41.4845     XY      -1.1065     YY     -41.7065
        XZ       2.9487     YZ      -1.7504     ZZ     -44.5270
    Octopole Moments (Debye-Ang^2)
       XXX     -42.9104    XXY      -7.6163    XYY      -1.5409
       YYY      -8.0592    XXZ      -9.9439    XYZ       5.9119
       YYZ      -1.5366    XZZ       2.7254    YZZ      -4.4243
       ZZZ      -0.5852
    Hexadecapole Moments (Debye-Ang^3)
      XXXX   -1267.2337   XXXY       7.3687   XXYY    -229.4799
      XYYY     -21.1936   YYYY    -162.5129   XXXZ      33.6713
      XXYZ     -20.6614   XYYZ       6.3708   YYYZ      -3.0744
      XXZZ    -242.4488   XYZZ     -14.7957   YYZZ     -43.7279
      XZZZ       1.7532   YZZZ      -2.1668   ZZZZ    -104.9782
 -----------------------------------------------------------------

 ---------------------------------------------------------------------
 *                     Fragment's binding energy                     *
 ---------------------------------------------------------------------
    Fragment           E(TOTAL)         E(CP-CORR)           DE(BSSE)
 ---------------------------------------------------------------------
           1    -346.7102810193    -346.7107896628       0.0005086435
           2    -346.7104232947    -346.7111011715       0.0006778767
     Complex    -693.4254008305
 ---------------------------------------------------------------------
  DE, kJ/mol     -12.3308503439      -9.2156044000
 ---------------------------------------------------------------------

Archival summary:
1\1\mm2.localdomain\SP\MP2\BasisUnspecified\i2210\xuedong\TueJul211:24:372019TueJul211:24:372019\0\\#,MP2,BasisUnspecified,\\0,1\Si\H,1,1.47645\H,1,1.47712,2,112.253\H,1,1.48529,2,108.602,3,-119.994,0\N,1,1.73865,2,106.328,3,115.95,0\H,5,1.00759,1,118.442,2,-172.797,0\H,5,1.00763,1,118.256,2,51.2347,0\H,4,2.70181,1,101.543,2,64.4271,0\N,8,1.00845,4,89.0836,1,-5.94058,0\H,9,1.00871,8,109.299,4,108.481,0\Si,9,1.7377,8,117.992,4,-113.026,0\H,11,1.47743,9,107.51,8,172.161,0\H,11,1.47754,9,107.481,8,52.8015,0\H,11,1.4854,9,115.56,8,-67.4981,0\\HF=-692.698755\MP2=-693.425401\\@

 Total job time:  1371.06s(wall), 3787.13s(cpu) 
 Tue Jul  2 11:24:37 2019

        *************************************************************
        *                                                           *
        *  Thank you very much for using Q-Chem.  Have a nice day.  *
        *                                                           *
        *************************************************************


