
Running Job 1 of 1 ../qm_inp/SiH3NH2_water.con2.110.qcinp
qchem ../qm_inp/SiH3NH2_water.con2.110.qcinp_34449.0 /scratch/xuedong/qchem34449/ 1
/home/qwang/software/qchem5.1.2/exe/qcprog.exe_s ../qm_inp/SiH3NH2_water.con2.110.qcinp_34449.0 /scratch/xuedong/qchem34449/
Check license passed

                  Welcome to Q-Chem
     A Quantum Leap Into The Future Of Chemistry


 Q-Chem 5.1, Q-Chem, Inc., Pleasanton, CA (2018)

 Yihan Shao,  Zhengting Gan,  E. Epifanovsky,  A. T. B. Gilbert,  M. Wormit,  
 J. Kussmann,  A. W. Lange,  A. Behn,  Jia Deng,  Xintian Feng,  D. Ghosh,  
 M. Goldey,  P. R. Horn,  L. D. Jacobson,  I. Kaliman,  T. Kus,  A. Landau,  
 Jie Liu,  E. I. Proynov,  R. M. Richard,  R. P. Steele,  E. J. Sundstrom,  
 H. L. Woodcock III,  P. M. Zimmerman,  D. Zuev,  B. Albrecht,  E. Alguire,  
 S. A. Baeppler,  D. Barton,  Z. Benda,  Y. A. Bernard,  E. J. Berquist,  
 K. B. Bravaya,  H. Burton,  D. Casanova,  Chun-Min Chang,  Yunqing Chen,  
 A. Chien,  K. D. Closser,  M. P. Coons,  S. Coriani,  S. Dasgupta,  
 A. L. Dempwolff,  M. Diedenhofen,  Hainam Do,  R. G. Edgar,  Po-Tung Fang,  
 S. Faraji,  S. Fatehi,  Qingguo Feng,  K. D. Fenk,  J. Fosso-Tande,  
 J. Gayvert,  Qinghui Ge,  A. Ghysels,  G. Gidofalvi,  J. Gomes,  
 J. Gonthier,  A. Gunina,  D. Hait,  M. W. D. Hanson-Heine,  
 P. H. P. Harbach,  A. W. Hauser,  J. E. Herr,  E. G. Hohenstein,  
 Z. C. Holden,  Kerwin Hui,  B. C. Huynh,  T.-C. Jagau,  Hyunjun Ji,  
 B. Kaduk,  K. Khistyaev,  Jaehoon Kim,  P. Klunzinger,  K. Koh,  
 D. Kosenkov,  L. Koulias,  T. Kowalczyk,  C. M. Krauter,  A. Kunitsa,  
 Ka Un Lao,  A. Laurent,  K. V. Lawler,  Joonho Lee,  D. Lefrancois,  
 S. Lehtola,  D. S. Levine,  Yi-Pei Li,  You-Sheng Lin,  Fenglai Liu,  
 E. Livshits,  A. Luenser,  P. Manohar,  E. Mansoor,  S. F. Manzer,  
 Shan-Ping Mao,  Yuezhi Mao,  N. Mardirossian,  A. V. Marenich,  
 T. Markovich,  L. A. Martinez-Martinez,  S. A. Maurer,  N. J. Mayhall,  
 S. C. McKenzie,  J.-M. Mewes,  A. F. Morrison,  J. W. Mullinax,  K. Nanda,  
 T. S. Nguyen-Beck,  R. Olivares-Amaya,  J. A. Parkhill,  T. M. Perrine,  
 F. Plasser,  P. Pokhilko,  S. Prager,  A. Prociuk,  E. Ramos,  D. R. Rehn,  
 F. Rob,  M. Schneider,  N. Sergueev,  S. M. Sharada,  S. Sharma,  
 D. W. Small,  T. Stauch,  T. Stein,  Yu-Chuan Su,  A. J. W. Thom,  
 A. Tkatchenko,  T. Tsuchimochi,  N. M. Tubman,  L. Vogt,  M. L. Vidal,  
 O. Vydrov,  M. A. Watson,  J. Wenzel,  M. de Wergifosse,  T. A. Wesolowski,  
 A. White,  J. Witte,  A. Yamada,  Jun Yang,  K. Yao,  S. Yeganeh,  
 S. R. Yost,  Zhi-Qiang You,  A. Zech,  Igor Ying Zhang,  Xing Zhang,  
 Yan Zhao,  Ying Zhu,  B. R. Brooks,  G. K. L. Chan,  C. J. Cramer,  
 M. S. Gordon,  W. J. Hehre,  A. Klamt,  M. W. Schmidt,  C. D. Sherrill,  
 D. G. Truhlar,  A. Aspuru-Guzik,  R. Baer,  A. T. Bell,  N. A. Besley,  
 Jeng-Da Chai,  A. E. DePrince, III,  R. A. DiStasio Jr.,  A. Dreuw,  
 B. D. Dunietz,  T. R. Furlani,  Chao-Ping Hsu,  Yousung Jung,  Jing Kong,  
 D. S. Lambrecht,  WanZhen Liang,  C. Ochsenfeld,  V. A. Rassolov,  
 L. V. Slipchenko,  J. E. Subotnik,  T. Van Voorhis,  J. M. Herbert,  
 A. I. Krylov,  P. M. W. Gill,  M. Head-Gordon

 Contributors to earlier versions of Q-Chem not listed above: 
 R. D. Adamson,  B. Austin,  J. Baker,  G. J. O. Beran,  K. Brandhorst,  
 S. T. Brown,  E. F. C. Byrd,  A. K. Chakraborty,  C.-L. Cheng,  
 Siu Hung Chien,  D. M. Chipman,  D. L. Crittenden,  H. Dachsel,  
 R. J. Doerksen,  A. D. Dutoi,  L. Fusti-Molnar,  W. A. Goddard III,  
 A. Golubeva-Zadorozhnaya,  S. R. Gwaltney,  G. Hawkins,  A. Heyden,  
 S. Hirata,  G. Kedziora,  F. J. Keil,  C. Kelley,  Jihan Kim,  R. A. King,  
 R. Z. Khaliullin,  P. P. Korambath,  W. Kurlancheek,  A. M. Lee,  M. S. Lee,  
 S. V. Levchenko,  Ching Yeh Lin,  D. Liotard,  R. C. Lochan,  I. Lotan,  
 P. E. Maslen,  N. Nair,  D. P. O'Neill,  D. Neuhauser,  E. Neuscamman,  
 C. M. Oana,  R. Olson,  B. Peters,  R. Peverati,  P. A. Pieniazek,  
 Y. M. Rhee,  J. Ritchie,  M. A. Rohrdanz,  E. Rosta,  N. J. Russ,  
 H. F. Schaefer III,  N. E. Schultz,  N. Shenvi,  A. C. Simmonett,  A. Sodt,  
 D. Stuck,  K. S. Thanthiriwatte,  V. Vanovschi,  Tao Wang,  A. Warshel,  
 C. F. Williams,  Q. Wu,  X. Xu,  W. Zhang

 Please cite Q-Chem as follows:
 Y. Shao et al., Mol. Phys. 113, 184-215 (2015)
 DOI: 10.1080/00268976.2014.952696

 Q-Chem 5.1.2 for Intel X86 EM64T Linux

 Parts of Q-Chem use Armadillo 8.300.2 (Tropical Shenanigans).
 http://arma.sourceforge.net/

 Q-Chem begins on Thu Jul 11 09:51:09 2019  

Host: 
0

     Scratch files written to /scratch/xuedong/qchem34449//
 Dec218 |scratch|qcdevops|jenkins|workspace|build_RNUM 6581   
Processing $rem in /home/qwang/software/qchem5.1.2/config/preferences.
 MEM_TOTAL  4000 
Core orbitals will be frozen
Input Ideriv = 1
Curr. Ideriv = -1
Max.  Ideriv = 1

Checking the input file for inconsistencies... 	...done.

--------------------------------------------------------------
User input:
--------------------------------------------------------------
$molecule
0 1
--
0 1
O     2.727262800     0.140250979     0.206246615
H     2.747771752     1.047748175    -0.107062323
H     2.825602485    -0.377966203    -0.596211209
--
0 1
Si    -0.668525238    -0.033067208     0.178565846
H    -0.247433586    -0.363730178     1.559287586
H    -0.207266456     1.334723514    -0.142054120
H    -0.087429677    -1.027137316    -0.748227300
N    -2.383840351    -0.049259023    -0.104552934
H    -2.947234648     0.646089763     0.358938139
H    -2.859496597    -0.937104925    -0.069367325
$end

$rem
BASIS = aug-cc-pVTZ
JOB_TYPE  =  BSSE
METHOD  =  MP2
SCF_CONVERGENCE  =  7
SCF_MAX_CYCLES  =  200
$end

--------------------------------------------------------------
 ----------------------------------------------------------------
             Standard Nuclear Orientation (Angstroms)
    I     Atom           X                Y                Z
 ----------------------------------------------------------------
    1      O       2.8699947751    -0.0060677070     0.0661493345
    2      H       2.9323503170     0.7733635272    -0.4912849720
    3      H       2.9297549270    -0.7345154016    -0.5567077768
    4      Si     -0.5302504604     0.0012776541     0.0876016557
    5      H      -0.1062683913     0.0525451848     1.5055789291
    6      H      -0.0042887442     1.1959543990    -0.6070349644
    7      H      -0.0146521276    -1.2438086270    -0.5196145149
    8      N      -2.2481435747    -0.0027739462    -0.1798888817
    9      H      -2.7682347754     0.8242782305     0.0675719895
   10      H      -2.7681079374    -0.8177451910     0.1050956247
 ----------------------------------------------------------------
 Molecular Point Group                 C1    NOp =  1
 Largest Abelian Subgroup              C1    NOp =  1
 Nuclear Repulsion Energy =   109.2775238909 hartrees
 There are       18 alpha and       18 beta electrons
 Requested basis set is aug-cc-pVTZ
 There are 107 shells and 303 basis functions

 Total QAlloc Memory Limit   4000 MB
 Mega-Array Size       188 MB
 MEM_STATIC part       192 MB

                       Distance Matrix (Angstroms)
             O (  1)   H (  2)   H (  3)   Si(  4)   H (  5)   H (  6)
   H (  2)  0.960278
   H (  3)  0.960291  1.509300
   Si(  4)  3.400321  3.594556  3.595576
   H (  5)  3.306590  3.706784  3.753655  1.480895
   H (  6)  3.187403  2.969146  3.512529  1.478651  2.404355
   H (  7)  3.193166  3.571360  2.988359  1.478105  2.406312  2.441351
   N (  8)  5.124050  5.247559  5.242907  1.738598  2.726076  2.579591
   H (  9)  5.699045  5.728140  5.940257  2.384597  3.122419  2.869257
   H ( 10)  5.696362  5.948321  5.736772  2.383088  3.131158  3.492966
             H (  7)   N (  8)   H (  9)
   N (  8)  2.577608
   H (  9)  3.493421  1.007843
   H ( 10)  2.855400  1.007848  1.642452
 
 A cutoff of  1.0D-10 yielded   5303 shell pairs
 There are     41841 function pairs (     53811 Cartesian)
 
 -------------------------------------------------------
 OpenMP Integral Computing Module                       
 Release: version 1.0, May 2013, Q-Chem Inc. Pittsburgh 
 -------------------------------------------------------
 Integral Job Info:
 Integral job number is                      11
 Integral operator is                         1
 short-range coefficients                     0
 long-range coefficients              100000000
 Omega coefficients                           0
 if combine SR and LR in K                    0
 Integral screening is                        0
 Integral computing path is                   2
 max size of driver memory is            800000
 size of driver memory is                776718
 size of scratch memory is             29531563
 max col of scratch BK array              10000
 max len of scratch array in speh3          662
 max len of scratch index in speh4           32
 max int batch size is                      520
 min int batch size is                       52
 fixed nKL is                                31
 max L of basis functions is                  3
 order of int derivative is                   0
 number of shells is                        107
 number of basis is                         344
 number of cartesian basis is               344
 number of contracted shell pairs          5303
 number of primitive shell pairs          15284
 maxK2 (contraction) of shell pair          169
 max number of K2 of shell pair               1
 max number of CS2 of shell pair            915
 max number of PS2 of shell pair           1131
 mem total for path MDJ                  637296
 -------------------------------------------------------
 Smallest overlap matrix eigenvalue = 1.79E-05

 Scale SEOQF with 1.000000e-01/1.000000e-01/1.000000e-01

 Standard Electronic Orientation quadrupole field applied
 Nucleus-field energy     =     0.0000000049 hartrees
 Guess MOs from converged MOs on fragments

-----------------------------------------------------------------
 SCF on fragment 1 out of 2
/home/qwang/software/qchem5.1.2/exe/qcprog.exe /scratch/xuedong/qchem34449/Frg1.input /scratch/xuedong/qchem34449/Frg1/ > /dev/null 
 SCF on fragment 2 out of 2
/home/qwang/software/qchem5.1.2/exe/qcprog.exe /scratch/xuedong/qchem34449/Frg2.input /scratch/xuedong/qchem34449/Frg2/ > /dev/null 
-----------------------------------------------------------------
 Done with SCF on isolated fragments
-----------------------------------------------------------------

 User-specified occupied guess orbitals will be used
 A restricted Hartree-Fock SCF calculation will be
 performed using Pulay DIIS extrapolation
 SCF converges when DIIS error is below 1.0E-07
 using 6 threads for integral computing
 -------------------------------------------------------
 OpenMP Integral computing Module                
 Release: version 1.0, May 2013, Q-Chem Inc. Pittsburgh 
 -------------------------------------------------------
 ---------------------------------------
  Cycle       Energy         DIIS Error
 ---------------------------------------
    1    -422.4107625947      1.85E-04
    2    -422.4114710647      3.88E-05
    3    -422.4115123403      1.53E-05
    4    -422.4115159183      5.76E-06
    5    -422.4115166030      1.16E-06
    6    -422.4115166468      3.32E-07
    7    -422.4115166498      1.12E-07
    8    -422.4115166501      4.11E-08 Convergence criterion met
 ---------------------------------------
 SCF time:  CPU 214.58 s  wall 35.81 s

-----------------------------------------------------------------
 SCF CP correction for fragment 1 out of 2
/home/qwang/software/qchem5.1.2/exe/qcprog.exe /scratch/xuedong/qchem34449/Frg1.input /scratch/xuedong/qchem34449/Frg1BSSE/ > /dev/null 
 SCF CP correction for fragment 2 out of 2
/home/qwang/software/qchem5.1.2/exe/qcprog.exe /scratch/xuedong/qchem34449/Frg2.input /scratch/xuedong/qchem34449/Frg2BSSE/ > /dev/null 
-----------------------------------------------------------------
 Done with counterpoise correction on fragments
-----------------------------------------------------------------

 SCF   energy in the final basis set = -422.41151665
 Total energy in the final basis set = -422.41151665
 
 Components of the MP2 correlation energy:
        aaaa  correlation energy =        -0.0683803406 au
        abab  correlation energy =        -0.4937440063 au
        bbbb  correlation energy =        -0.0683803406 au
        non-Brillouin singles    =        -0.0000000000 au

 Total  MP2   correlation energy =                    -0.63050469 au
        MP2         total energy =                  -423.04202134 au
 
 --------------------------------------------------------------
 
                    Orbital Energies (a.u.)
 --------------------------------------------------------------
 
 Alpha MOs
 -- Occupied --
-68.773 -20.570 -15.531  -6.119  -4.225  -4.225  -4.225  -1.355
 -1.130  -0.716  -0.715  -0.649  -0.589  -0.547  -0.512  -0.486
 -0.472  -0.397
 -- Virtual --
  0.028   0.033   0.045   0.056   0.059   0.062   0.073   0.075
  0.090   0.090   0.125   0.133   0.147   0.160   0.165   0.175
  0.178   0.180   0.181   0.202   0.219   0.223   0.224   0.230
  0.236   0.252   0.257   0.268   0.282   0.285   0.298   0.300
  0.320   0.334   0.342   0.347   0.357   0.365   0.375   0.383
  0.396   0.401   0.405   0.415   0.418   0.423   0.440   0.445
  0.449   0.471   0.472   0.476   0.486   0.510   0.522   0.540
  0.567   0.584   0.603   0.606   0.628   0.634   0.644   0.658
  0.662   0.672   0.677   0.686   0.687   0.713   0.728   0.740
  0.769   0.787   0.811   0.823   0.848   0.859   0.868   0.887
  0.891   0.917   0.928   0.931   0.947   0.964   0.969   0.971
  0.993   1.001   1.011   1.022   1.030   1.045   1.047   1.056
  1.059   1.077   1.089   1.099   1.106   1.120   1.132   1.142
  1.157   1.159   1.167   1.190   1.194   1.213   1.218   1.234
  1.241   1.250   1.255   1.277   1.290   1.312   1.327   1.346
  1.351   1.357   1.367   1.375   1.386   1.405   1.414   1.420
  1.438   1.447   1.487   1.489   1.513   1.548   1.559   1.572
  1.573   1.588   1.601   1.636   1.640   1.748   1.756   1.771
  1.804   1.815   1.849   1.853   1.896   1.899   1.949   1.951
  2.006   2.018   2.027   2.038   2.103   2.109   2.136   2.168
  2.191   2.212   2.223   2.238   2.253   2.322   2.344   2.355
  2.373   2.387   2.438   2.463   2.468   2.482   2.489   2.502
  2.513   2.578   2.599   2.697   2.732   2.776   2.819   2.828
  2.903   2.936   3.142   3.160   3.406   3.572   3.670   3.711
  3.749   3.767   3.805   3.811   3.980   3.987   4.033   4.042
  4.085   4.122   4.128   4.147   4.165   4.168   4.189   4.200
  4.236   4.242   4.247   4.271   4.288   4.301   4.306   4.329
  4.374   4.394   4.408   4.425   4.440   4.459   4.485   4.508
  4.513   4.529   4.551   4.569   4.574   4.623   4.662   4.686
  4.739   4.758   4.770   4.813   4.823   4.841   4.857   4.872
  4.931   4.974   5.006   5.086   5.128   5.146   5.159   5.167
  5.202   5.222   5.259   5.319   5.334   5.368   5.427   5.529
  5.566   5.600   5.720   5.902   5.976   6.051   6.184   6.200
  6.253   6.484   6.557   6.631   6.731   6.739   6.937   7.185
  7.300   7.320   7.348   7.384   7.396   7.573   7.763   7.904
  7.952   8.834   8.924  15.969  16.257
 --------------------------------------------------------------
 
          Ground-State Mulliken Net Atomic Charges

     Atom                 Charge (a.u.)
  ----------------------------------------
      1 O                    -0.473768
      2 H                     0.228485
      3 H                     0.228060
      4 Si                    1.095917
      5 H                    -0.272576
      6 H                    -0.259715
      7 H                    -0.254937
      8 N                    -0.535250
      9 H                     0.122022
     10 H                     0.121762
  ----------------------------------------
  Sum of atomic charges =     0.000000

 -----------------------------------------------------------------
                    Cartesian Multipole Moments
 -----------------------------------------------------------------
    Charge (ESU x 10^10)
                 0.0000
    Dipole Moment (Debye)
         X      -0.3790      Y       0.0984      Z      -0.9459
       Tot       1.0237
    Quadrupole Moments (Debye-Ang)
        XX     -25.0405     XY       0.1864     YY     -25.2700
        XZ      -8.6273     YZ       0.0033     ZZ     -30.4418
    Octopole Moments (Debye-Ang^2)
       XXX      -3.1520    XXY       0.9578    XYY       4.4371
       YYY       0.3189    XXZ     -10.4555    XYZ       0.4618
       YYZ      -0.0574    XZZ       8.8396    YZZ      -0.2390
       ZZZ      -2.3987
    Hexadecapole Moments (Debye-Ang^3)
      XXXX    -591.3337   XXXY       1.9778   XXYY     -76.2649
      XYYY       0.3103   YYYY     -58.2035   XXXZ     -73.8962
      XXYZ       0.1264   XYYZ      -6.4838   YYYZ      -0.0342
      XXZZ    -115.6188   XYZZ      -0.2009   YYZZ     -19.4733
      XZZZ      -6.9563   YZZZ       0.0235   ZZZZ     -62.1463
 -----------------------------------------------------------------

 ---------------------------------------------------------------------
 *                     Fragment's binding energy                     *
 ---------------------------------------------------------------------
    Fragment           E(TOTAL)         E(CP-CORR)           DE(BSSE)
 ---------------------------------------------------------------------
           1     -76.3289827153     -76.3292900624       0.0003073471
           2    -346.7102825913    -346.7104687193       0.0001861280
     Complex    -423.0420213377
 ---------------------------------------------------------------------
  DE, kJ/mol      -7.2360454968      -5.9404112621
 ---------------------------------------------------------------------

Archival summary:
1\1\gm4.localdomain\SP\MP2\BasisUnspecified\i1117\xuedong\ThuJul1109:55:462019ThuJul1109:55:462019\0\\#,MP2,BasisUnspecified,\\0,1\Si\H,1,1.4781\H,1,1.47865,2,111.316\H,1,1.48089,2,108.823,3,-119.731,0\N,1,1.7386,2,106.231,3,115.33,0\H,5,1.00784,1,118.048,2,-172.801,0\H,5,1.00785,1,117.914,2,52.5528,0\H,3,2.96915,1,102.621,2,-54.4687,0\O,8,0.960278,3,94.2397,1,-6.05072,0\H,9,0.960291,8,103.601,3,97.5194,0\\HF=-422.411517\MP2=-423.042021\\@

 Total job time:  277.38s(wall), 566.87s(cpu) 
 Thu Jul 11 09:55:46 2019

        *************************************************************
        *                                                           *
        *  Thank you very much for using Q-Chem.  Have a nice day.  *
        *                                                           *
        *************************************************************


