
Running Job 1 of 1 ../qm_inp/SiH3NH2_water.con2.100.qcinp
qchem ../qm_inp/SiH3NH2_water.con2.100.qcinp_33677.0 /scratch/xuedong/qchem33677/ 1
/home/qwang/software/qchem5.1.2/exe/qcprog.exe_s ../qm_inp/SiH3NH2_water.con2.100.qcinp_33677.0 /scratch/xuedong/qchem33677/
Check license passed

                  Welcome to Q-Chem
     A Quantum Leap Into The Future Of Chemistry


 Q-Chem 5.1, Q-Chem, Inc., Pleasanton, CA (2018)

 Yihan Shao,  Zhengting Gan,  E. Epifanovsky,  A. T. B. Gilbert,  M. Wormit,  
 J. Kussmann,  A. W. Lange,  A. Behn,  Jia Deng,  Xintian Feng,  D. Ghosh,  
 M. Goldey,  P. R. Horn,  L. D. Jacobson,  I. Kaliman,  T. Kus,  A. Landau,  
 Jie Liu,  E. I. Proynov,  R. M. Richard,  R. P. Steele,  E. J. Sundstrom,  
 H. L. Woodcock III,  P. M. Zimmerman,  D. Zuev,  B. Albrecht,  E. Alguire,  
 S. A. Baeppler,  D. Barton,  Z. Benda,  Y. A. Bernard,  E. J. Berquist,  
 K. B. Bravaya,  H. Burton,  D. Casanova,  Chun-Min Chang,  Yunqing Chen,  
 A. Chien,  K. D. Closser,  M. P. Coons,  S. Coriani,  S. Dasgupta,  
 A. L. Dempwolff,  M. Diedenhofen,  Hainam Do,  R. G. Edgar,  Po-Tung Fang,  
 S. Faraji,  S. Fatehi,  Qingguo Feng,  K. D. Fenk,  J. Fosso-Tande,  
 J. Gayvert,  Qinghui Ge,  A. Ghysels,  G. Gidofalvi,  J. Gomes,  
 J. Gonthier,  A. Gunina,  D. Hait,  M. W. D. Hanson-Heine,  
 P. H. P. Harbach,  A. W. Hauser,  J. E. Herr,  E. G. Hohenstein,  
 Z. C. Holden,  Kerwin Hui,  B. C. Huynh,  T.-C. Jagau,  Hyunjun Ji,  
 B. Kaduk,  K. Khistyaev,  Jaehoon Kim,  P. Klunzinger,  K. Koh,  
 D. Kosenkov,  L. Koulias,  T. Kowalczyk,  C. M. Krauter,  A. Kunitsa,  
 Ka Un Lao,  A. Laurent,  K. V. Lawler,  Joonho Lee,  D. Lefrancois,  
 S. Lehtola,  D. S. Levine,  Yi-Pei Li,  You-Sheng Lin,  Fenglai Liu,  
 E. Livshits,  A. Luenser,  P. Manohar,  E. Mansoor,  S. F. Manzer,  
 Shan-Ping Mao,  Yuezhi Mao,  N. Mardirossian,  A. V. Marenich,  
 T. Markovich,  L. A. Martinez-Martinez,  S. A. Maurer,  N. J. Mayhall,  
 S. C. McKenzie,  J.-M. Mewes,  A. F. Morrison,  J. W. Mullinax,  K. Nanda,  
 T. S. Nguyen-Beck,  R. Olivares-Amaya,  J. A. Parkhill,  T. M. Perrine,  
 F. Plasser,  P. Pokhilko,  S. Prager,  A. Prociuk,  E. Ramos,  D. R. Rehn,  
 F. Rob,  M. Schneider,  N. Sergueev,  S. M. Sharada,  S. Sharma,  
 D. W. Small,  T. Stauch,  T. Stein,  Yu-Chuan Su,  A. J. W. Thom,  
 A. Tkatchenko,  T. Tsuchimochi,  N. M. Tubman,  L. Vogt,  M. L. Vidal,  
 O. Vydrov,  M. A. Watson,  J. Wenzel,  M. de Wergifosse,  T. A. Wesolowski,  
 A. White,  J. Witte,  A. Yamada,  Jun Yang,  K. Yao,  S. Yeganeh,  
 S. R. Yost,  Zhi-Qiang You,  A. Zech,  Igor Ying Zhang,  Xing Zhang,  
 Yan Zhao,  Ying Zhu,  B. R. Brooks,  G. K. L. Chan,  C. J. Cramer,  
 M. S. Gordon,  W. J. Hehre,  A. Klamt,  M. W. Schmidt,  C. D. Sherrill,  
 D. G. Truhlar,  A. Aspuru-Guzik,  R. Baer,  A. T. Bell,  N. A. Besley,  
 Jeng-Da Chai,  A. E. DePrince, III,  R. A. DiStasio Jr.,  A. Dreuw,  
 B. D. Dunietz,  T. R. Furlani,  Chao-Ping Hsu,  Yousung Jung,  Jing Kong,  
 D. S. Lambrecht,  WanZhen Liang,  C. Ochsenfeld,  V. A. Rassolov,  
 L. V. Slipchenko,  J. E. Subotnik,  T. Van Voorhis,  J. M. Herbert,  
 A. I. Krylov,  P. M. W. Gill,  M. Head-Gordon

 Contributors to earlier versions of Q-Chem not listed above: 
 R. D. Adamson,  B. Austin,  J. Baker,  G. J. O. Beran,  K. Brandhorst,  
 S. T. Brown,  E. F. C. Byrd,  A. K. Chakraborty,  C.-L. Cheng,  
 Siu Hung Chien,  D. M. Chipman,  D. L. Crittenden,  H. Dachsel,  
 R. J. Doerksen,  A. D. Dutoi,  L. Fusti-Molnar,  W. A. Goddard III,  
 A. Golubeva-Zadorozhnaya,  S. R. Gwaltney,  G. Hawkins,  A. Heyden,  
 S. Hirata,  G. Kedziora,  F. J. Keil,  C. Kelley,  Jihan Kim,  R. A. King,  
 R. Z. Khaliullin,  P. P. Korambath,  W. Kurlancheek,  A. M. Lee,  M. S. Lee,  
 S. V. Levchenko,  Ching Yeh Lin,  D. Liotard,  R. C. Lochan,  I. Lotan,  
 P. E. Maslen,  N. Nair,  D. P. O'Neill,  D. Neuhauser,  E. Neuscamman,  
 C. M. Oana,  R. Olson,  B. Peters,  R. Peverati,  P. A. Pieniazek,  
 Y. M. Rhee,  J. Ritchie,  M. A. Rohrdanz,  E. Rosta,  N. J. Russ,  
 H. F. Schaefer III,  N. E. Schultz,  N. Shenvi,  A. C. Simmonett,  A. Sodt,  
 D. Stuck,  K. S. Thanthiriwatte,  V. Vanovschi,  Tao Wang,  A. Warshel,  
 C. F. Williams,  Q. Wu,  X. Xu,  W. Zhang

 Please cite Q-Chem as follows:
 Y. Shao et al., Mol. Phys. 113, 184-215 (2015)
 DOI: 10.1080/00268976.2014.952696

 Q-Chem 5.1.2 for Intel X86 EM64T Linux

 Parts of Q-Chem use Armadillo 8.300.2 (Tropical Shenanigans).
 http://arma.sourceforge.net/

 Q-Chem begins on Thu Jul 11 09:41:34 2019  

Host: 
0

     Scratch files written to /scratch/xuedong/qchem33677//
 Dec218 |scratch|qcdevops|jenkins|workspace|build_RNUM 6581   
Processing $rem in /home/qwang/software/qchem5.1.2/config/preferences.
 MEM_TOTAL  4000 
Core orbitals will be frozen
Input Ideriv = 1
Curr. Ideriv = -1
Max.  Ideriv = 1

Checking the input file for inconsistencies... 	...done.

--------------------------------------------------------------
User input:
--------------------------------------------------------------
$molecule
0 1
--
0 1
O     2.727262800     0.140250979     0.206246615
H     2.747771752     1.047748175    -0.107062323
H     2.825602485    -0.377966203    -0.596211209
--
0 1
Si    -0.395725817    -0.019085986     0.181857779
H     0.025365835    -0.349748957     1.562579520
H     0.065532965     1.348704736    -0.138762186
H     0.185369743    -1.013156094    -0.744935367
N    -2.111040931    -0.035277802    -0.101261000
H    -2.674435228     0.660070985     0.362230073
H    -2.586697176    -0.923123704    -0.066075391
$end

$rem
BASIS = aug-cc-pVTZ
JOB_TYPE  =  BSSE
METHOD  =  MP2
SCF_CONVERGENCE  =  7
SCF_MAX_CYCLES  =  200
$end

--------------------------------------------------------------
 ----------------------------------------------------------------
             Standard Nuclear Orientation (Angstroms)
    I     Atom           X                Y                Z
 ----------------------------------------------------------------
    1      O       2.6727882915    -0.0061081337     0.0630412478
    2      H       2.7344471574     0.7733659094    -0.4944106953
    3      H       2.7316484614    -0.7345072324    -0.5599583781
    4      Si     -0.4542491397     0.0012400346     0.0880191089
    5      H      -0.0283408543     0.0523544460     1.5054245396
    6      H       0.0708609914     1.1959361082    -0.6072282766
    7      H       0.0604307338    -1.2438335722    -0.5200017020
    8      N      -2.1725036835    -0.0026583906    -0.1771421315
    9      H      -2.6921960036     0.8244121414     0.0710941911
   10      H      -2.6921430773    -0.8176144807     0.1084777346
 ----------------------------------------------------------------
 Molecular Point Group                 C1    NOp =  1
 Largest Abelian Subgroup              C1    NOp =  1
 Nuclear Repulsion Energy =   112.0126152263 hartrees
 There are       18 alpha and       18 beta electrons
 Requested basis set is aug-cc-pVTZ
 There are 107 shells and 303 basis functions

 Total QAlloc Memory Limit   4000 MB
 Mega-Array Size       188 MB
 MEM_STATIC part       192 MB

                       Distance Matrix (Angstroms)
             O (  1)   H (  2)   H (  3)   Si(  4)   H (  5)   H (  6)
   H (  2)  0.960278
   H (  3)  0.960291  1.509300
   Si(  4)  3.127146  3.332144  3.333338
   H (  5)  3.062676  3.486000  3.535887  1.480895
   H (  6)  2.943501  2.699256  3.287649  1.478651  2.404355
   H (  7)  2.948952  3.349644  2.719635  1.478105  2.406312  2.441351
   N (  8)  4.851243  4.978056  4.973214  1.738598  2.726076  2.579591
   H (  9)  5.428894  5.456268  5.678604  2.384597  3.122419  2.869257
   H ( 10)  5.426149  5.687053  5.465458  2.383088  3.131158  3.492966
             H (  7)   N (  8)   H (  9)
   N (  8)  2.577608
   H (  9)  3.493421  1.007843
   H ( 10)  2.855400  1.007848  1.642452
 
 A cutoff of  1.0D-10 yielded   5372 shell pairs
 There are     42650 function pairs (     54914 Cartesian)
 
 -------------------------------------------------------
 OpenMP Integral Computing Module                       
 Release: version 1.0, May 2013, Q-Chem Inc. Pittsburgh 
 -------------------------------------------------------
 Integral Job Info:
 Integral job number is                      11
 Integral operator is                         1
 short-range coefficients                     0
 long-range coefficients              100000000
 Omega coefficients                           0
 if combine SR and LR in K                    0
 Integral screening is                        0
 Integral computing path is                   2
 max size of driver memory is            800000
 size of driver memory is                776718
 size of scratch memory is             29531563
 max col of scratch BK array              10000
 max len of scratch array in speh3          662
 max len of scratch index in speh4           32
 max int batch size is                      520
 min int batch size is                       52
 fixed nKL is                                31
 max L of basis functions is                  3
 order of int derivative is                   0
 number of shells is                        107
 number of basis is                         344
 number of cartesian basis is               344
 number of contracted shell pairs          5372
 number of primitive shell pairs          15454
 maxK2 (contraction) of shell pair          169
 max number of K2 of shell pair               1
 max number of CS2 of shell pair            921
 max number of PS2 of shell pair           1131
 mem total for path MDJ                  641440
 -------------------------------------------------------
 Smallest overlap matrix eigenvalue = 1.69E-05

 Scale SEOQF with 1.000000e-01/1.000000e-01/1.000000e-01

 Standard Electronic Orientation quadrupole field applied
 Nucleus-field energy     =     0.0000000044 hartrees
 Guess MOs from converged MOs on fragments

-----------------------------------------------------------------
 SCF on fragment 1 out of 2
/home/qwang/software/qchem5.1.2/exe/qcprog.exe /scratch/xuedong/qchem33677/Frg1.input /scratch/xuedong/qchem33677/Frg1/ > /dev/null 
 SCF on fragment 2 out of 2
/home/qwang/software/qchem5.1.2/exe/qcprog.exe /scratch/xuedong/qchem33677/Frg2.input /scratch/xuedong/qchem33677/Frg2/ > /dev/null 
-----------------------------------------------------------------
 Done with SCF on isolated fragments
-----------------------------------------------------------------

 User-specified occupied guess orbitals will be used
 A restricted Hartree-Fock SCF calculation will be
 performed using Pulay DIIS extrapolation
 SCF converges when DIIS error is below 1.0E-07
 using 6 threads for integral computing
 -------------------------------------------------------
 OpenMP Integral computing Module                
 Release: version 1.0, May 2013, Q-Chem Inc. Pittsburgh 
 -------------------------------------------------------
 ---------------------------------------
  Cycle       Energy         DIIS Error
 ---------------------------------------
    1    -422.4091944014      2.53E-04
    2    -422.4105784148      6.09E-05
    3    -422.4106715187      2.79E-05
    4    -422.4106816480      8.20E-06
    5    -422.4106832832      1.69E-06
    6    -422.4106833725      4.77E-07
    7    -422.4106833789      1.48E-07
    8    -422.4106833795      5.44E-08 Convergence criterion met
 ---------------------------------------
 SCF time:  CPU 222.17 s  wall 37.09 s

-----------------------------------------------------------------
 SCF CP correction for fragment 1 out of 2
/home/qwang/software/qchem5.1.2/exe/qcprog.exe /scratch/xuedong/qchem33677/Frg1.input /scratch/xuedong/qchem33677/Frg1BSSE/ > /dev/null 
 SCF CP correction for fragment 2 out of 2
/home/qwang/software/qchem5.1.2/exe/qcprog.exe /scratch/xuedong/qchem33677/Frg2.input /scratch/xuedong/qchem33677/Frg2BSSE/ > /dev/null 
-----------------------------------------------------------------
 Done with counterpoise correction on fragments
-----------------------------------------------------------------

 SCF   energy in the final basis set = -422.41068338
 Total energy in the final basis set = -422.41068338
 
 Components of the MP2 correlation energy:
        aaaa  correlation energy =        -0.0686239955 au
        abab  correlation energy =        -0.4942996342 au
        bbbb  correlation energy =        -0.0686239955 au
        non-Brillouin singles    =        -0.0000000000 au

 Total  MP2   correlation energy =                    -0.63154763 au
        MP2         total energy =                  -423.04223100 au
 
 --------------------------------------------------------------
 
                    Orbital Energies (a.u.)
 --------------------------------------------------------------
 
 Alpha MOs
 -- Occupied --
-68.772 -20.571 -15.530  -6.118  -4.224  -4.224  -4.224  -1.357
 -1.129  -0.718  -0.714  -0.648  -0.591  -0.550  -0.511  -0.483
 -0.471  -0.396
 -- Virtual --
  0.028   0.034   0.045   0.057   0.059   0.063   0.072   0.075
  0.090   0.091   0.125   0.132   0.147   0.162   0.165   0.175
  0.178   0.182   0.183   0.205   0.220   0.225   0.227   0.233
  0.242   0.253   0.260   0.270   0.284   0.291   0.298   0.309
  0.321   0.335   0.337   0.356   0.360   0.368   0.376   0.383
  0.400   0.403   0.414   0.417   0.424   0.426   0.444   0.448
  0.453   0.471   0.473   0.477   0.490   0.515   0.525   0.544
  0.574   0.589   0.607   0.609   0.635   0.645   0.649   0.664
  0.670   0.674   0.676   0.688   0.693   0.717   0.733   0.746
  0.782   0.799   0.805   0.837   0.857   0.865   0.878   0.899
  0.916   0.924   0.934   0.942   0.946   0.969   0.977   0.988
  0.992   1.011   1.015   1.031   1.034   1.048   1.055   1.065
  1.069   1.087   1.096   1.110   1.114   1.122   1.137   1.154
  1.175   1.181   1.187   1.202   1.208   1.217   1.228   1.245
  1.250   1.270   1.273   1.300   1.311   1.335   1.340   1.343
  1.357   1.368   1.380   1.392   1.409   1.418   1.432   1.435
  1.441   1.448   1.496   1.499   1.527   1.566   1.573   1.589
  1.591   1.610   1.617   1.651   1.665   1.752   1.758   1.787
  1.827   1.842   1.854   1.875   1.901   1.904   1.956   1.963
  2.014   2.022   2.030   2.046   2.107   2.118   2.148   2.183
  2.217   2.221   2.234   2.242   2.257   2.324   2.344   2.380
  2.401   2.403   2.458   2.479   2.484   2.489   2.509   2.529
  2.539   2.592   2.623   2.707   2.730   2.786   2.824   2.835
  2.909   2.949   3.150   3.171   3.417   3.589   3.692   3.726
  3.753   3.780   3.820   3.850   3.991   4.000   4.028   4.057
  4.106   4.128   4.135   4.159   4.168   4.174   4.205   4.205
  4.237   4.247   4.268   4.272   4.295   4.318   4.352   4.354
  4.366   4.397   4.424   4.459   4.462   4.485   4.507   4.511
  4.512   4.534   4.559   4.574   4.602   4.639   4.679   4.697
  4.744   4.760   4.768   4.820   4.826   4.843   4.877   4.884
  4.977   4.983   5.023   5.095   5.137   5.154   5.165   5.168
  5.216   5.229   5.266   5.326   5.339   5.378   5.438   5.531
  5.576   5.625   5.740   5.905   5.978   6.053   6.187   6.202
  6.280   6.490   6.564   6.633   6.737   6.743   6.949   7.198
  7.306   7.337   7.361   7.394   7.398   7.598   7.767   7.906
  7.963   8.844   8.985  16.040  16.265
 --------------------------------------------------------------
 
          Ground-State Mulliken Net Atomic Charges

     Atom                 Charge (a.u.)
  ----------------------------------------
      1 O                    -0.490755
      2 H                     0.230199
      3 H                     0.229827
      4 Si                    1.162761
      5 H                    -0.270275
      6 H                    -0.265330
      7 H                    -0.259972
      8 N                    -0.578346
      9 H                     0.121084
     10 H                     0.120809
  ----------------------------------------
  Sum of atomic charges =    -0.000000

 -----------------------------------------------------------------
                    Cartesian Multipole Moments
 -----------------------------------------------------------------
    Charge (ESU x 10^10)
                -0.0000
    Dipole Moment (Debye)
         X      -0.2917      Y       0.0973      Z      -0.9181
       Tot       0.9682
    Quadrupole Moments (Debye-Ang)
        XX     -25.2283     XY       0.1716     YY     -25.3261
        XZ      -8.1661     YZ       0.0035     ZZ     -30.4448
    Octopole Moments (Debye-Ang^2)
       XXX      -3.2536    XXY       0.8520    XYY       3.7732
       YYY       0.3204    XXZ      -8.5942    XYZ       0.4385
       YYZ       0.0026    XZZ       8.2973    YZZ      -0.2447
       ZZZ      -2.3900
    Hexadecapole Moments (Debye-Ang^3)
      XXXX    -529.6154   XXXY       1.5937   XXYY     -69.2254
      XYYY       0.2853   YYYY     -58.4748   XXXZ     -62.7041
      XXYZ       0.0703   XYYZ      -6.1079   YYYZ      -0.0341
      XXZZ    -105.0445   XYZZ      -0.1965   YYZZ     -19.5349
      XZZZ      -6.7573   YZZZ       0.0251   ZZZZ     -62.2261
 -----------------------------------------------------------------

 ---------------------------------------------------------------------
 *                     Fragment's binding energy                     *
 ---------------------------------------------------------------------
    Fragment           E(TOTAL)         E(CP-CORR)           DE(BSSE)
 ---------------------------------------------------------------------
           1     -76.3289827153     -76.3293744188       0.0003917035
           2    -346.7102825913    -346.7105350667       0.0002524754
     Complex    -423.0422310047
 ---------------------------------------------------------------------
  DE, kJ/mol      -7.7865326655      -6.0952210426
 ---------------------------------------------------------------------

Archival summary:
1\1\gm4.localdomain\SP\MP2\BasisUnspecified\i1117\xuedong\ThuJul1109:46:232019ThuJul1109:46:232019\0\\#,MP2,BasisUnspecified,\\0,1\Si\H,1,1.4781\H,1,1.47865,2,111.316\H,1,1.48089,2,108.823,3,-119.731,0\N,1,1.7386,2,106.231,3,115.33,0\H,5,1.00784,1,118.048,2,-172.801,0\H,5,1.00785,1,117.914,2,52.5528,0\H,3,2.69926,1,101.788,2,-54.27,0\O,8,0.960278,3,95.0472,1,-6.11558,0\H,9,0.960291,8,103.601,3,97.8017,0\\HF=-422.410683\MP2=-423.042231\\@

 Total job time:  288.73s(wall), 591.40s(cpu) 
 Thu Jul 11 09:46:23 2019

        *************************************************************
        *                                                           *
        *  Thank you very much for using Q-Chem.  Have a nice day.  *
        *                                                           *
        *************************************************************


