
Running Job 1 of 3 ../qm_inp/SiH3NH2_SiH3NH2_con3.100.qcinp
qchem ../qm_inp/SiH3NH2_SiH3NH2_con3.100.qcinp_17751.0 /scratch/xuedong/qchem17751/ 1
/home/qwang/software/qchem5.1.2/exe/qcprog.exe_s ../qm_inp/SiH3NH2_SiH3NH2_con3.100.qcinp_17751.0 /scratch/xuedong/qchem17751/
Check license passed

                  Welcome to Q-Chem
     A Quantum Leap Into The Future Of Chemistry


 Q-Chem 5.1, Q-Chem, Inc., Pleasanton, CA (2018)

 Yihan Shao,  Zhengting Gan,  E. Epifanovsky,  A. T. B. Gilbert,  M. Wormit,  
 J. Kussmann,  A. W. Lange,  A. Behn,  Jia Deng,  Xintian Feng,  D. Ghosh,  
 M. Goldey,  P. R. Horn,  L. D. Jacobson,  I. Kaliman,  T. Kus,  A. Landau,  
 Jie Liu,  E. I. Proynov,  R. M. Richard,  R. P. Steele,  E. J. Sundstrom,  
 H. L. Woodcock III,  P. M. Zimmerman,  D. Zuev,  B. Albrecht,  E. Alguire,  
 S. A. Baeppler,  D. Barton,  Z. Benda,  Y. A. Bernard,  E. J. Berquist,  
 K. B. Bravaya,  H. Burton,  D. Casanova,  Chun-Min Chang,  Yunqing Chen,  
 A. Chien,  K. D. Closser,  M. P. Coons,  S. Coriani,  S. Dasgupta,  
 A. L. Dempwolff,  M. Diedenhofen,  Hainam Do,  R. G. Edgar,  Po-Tung Fang,  
 S. Faraji,  S. Fatehi,  Qingguo Feng,  K. D. Fenk,  J. Fosso-Tande,  
 J. Gayvert,  Qinghui Ge,  A. Ghysels,  G. Gidofalvi,  J. Gomes,  
 J. Gonthier,  A. Gunina,  D. Hait,  M. W. D. Hanson-Heine,  
 P. H. P. Harbach,  A. W. Hauser,  J. E. Herr,  E. G. Hohenstein,  
 Z. C. Holden,  Kerwin Hui,  B. C. Huynh,  T.-C. Jagau,  Hyunjun Ji,  
 B. Kaduk,  K. Khistyaev,  Jaehoon Kim,  P. Klunzinger,  K. Koh,  
 D. Kosenkov,  L. Koulias,  T. Kowalczyk,  C. M. Krauter,  A. Kunitsa,  
 Ka Un Lao,  A. Laurent,  K. V. Lawler,  Joonho Lee,  D. Lefrancois,  
 S. Lehtola,  D. S. Levine,  Yi-Pei Li,  You-Sheng Lin,  Fenglai Liu,  
 E. Livshits,  A. Luenser,  P. Manohar,  E. Mansoor,  S. F. Manzer,  
 Shan-Ping Mao,  Yuezhi Mao,  N. Mardirossian,  A. V. Marenich,  
 T. Markovich,  L. A. Martinez-Martinez,  S. A. Maurer,  N. J. Mayhall,  
 S. C. McKenzie,  J.-M. Mewes,  A. F. Morrison,  J. W. Mullinax,  K. Nanda,  
 T. S. Nguyen-Beck,  R. Olivares-Amaya,  J. A. Parkhill,  T. M. Perrine,  
 F. Plasser,  P. Pokhilko,  S. Prager,  A. Prociuk,  E. Ramos,  D. R. Rehn,  
 F. Rob,  M. Schneider,  N. Sergueev,  S. M. Sharada,  S. Sharma,  
 D. W. Small,  T. Stauch,  T. Stein,  Yu-Chuan Su,  A. J. W. Thom,  
 A. Tkatchenko,  T. Tsuchimochi,  N. M. Tubman,  L. Vogt,  M. L. Vidal,  
 O. Vydrov,  M. A. Watson,  J. Wenzel,  M. de Wergifosse,  T. A. Wesolowski,  
 A. White,  J. Witte,  A. Yamada,  Jun Yang,  K. Yao,  S. Yeganeh,  
 S. R. Yost,  Zhi-Qiang You,  A. Zech,  Igor Ying Zhang,  Xing Zhang,  
 Yan Zhao,  Ying Zhu,  B. R. Brooks,  G. K. L. Chan,  C. J. Cramer,  
 M. S. Gordon,  W. J. Hehre,  A. Klamt,  M. W. Schmidt,  C. D. Sherrill,  
 D. G. Truhlar,  A. Aspuru-Guzik,  R. Baer,  A. T. Bell,  N. A. Besley,  
 Jeng-Da Chai,  A. E. DePrince, III,  R. A. DiStasio Jr.,  A. Dreuw,  
 B. D. Dunietz,  T. R. Furlani,  Chao-Ping Hsu,  Yousung Jung,  Jing Kong,  
 D. S. Lambrecht,  WanZhen Liang,  C. Ochsenfeld,  V. A. Rassolov,  
 L. V. Slipchenko,  J. E. Subotnik,  T. Van Voorhis,  J. M. Herbert,  
 A. I. Krylov,  P. M. W. Gill,  M. Head-Gordon

 Contributors to earlier versions of Q-Chem not listed above: 
 R. D. Adamson,  B. Austin,  J. Baker,  G. J. O. Beran,  K. Brandhorst,  
 S. T. Brown,  E. F. C. Byrd,  A. K. Chakraborty,  C.-L. Cheng,  
 Siu Hung Chien,  D. M. Chipman,  D. L. Crittenden,  H. Dachsel,  
 R. J. Doerksen,  A. D. Dutoi,  L. Fusti-Molnar,  W. A. Goddard III,  
 A. Golubeva-Zadorozhnaya,  S. R. Gwaltney,  G. Hawkins,  A. Heyden,  
 S. Hirata,  G. Kedziora,  F. J. Keil,  C. Kelley,  Jihan Kim,  R. A. King,  
 R. Z. Khaliullin,  P. P. Korambath,  W. Kurlancheek,  A. M. Lee,  M. S. Lee,  
 S. V. Levchenko,  Ching Yeh Lin,  D. Liotard,  R. C. Lochan,  I. Lotan,  
 P. E. Maslen,  N. Nair,  D. P. O'Neill,  D. Neuhauser,  E. Neuscamman,  
 C. M. Oana,  R. Olson,  B. Peters,  R. Peverati,  P. A. Pieniazek,  
 Y. M. Rhee,  J. Ritchie,  M. A. Rohrdanz,  E. Rosta,  N. J. Russ,  
 H. F. Schaefer III,  N. E. Schultz,  N. Shenvi,  A. C. Simmonett,  A. Sodt,  
 D. Stuck,  K. S. Thanthiriwatte,  V. Vanovschi,  Tao Wang,  A. Warshel,  
 C. F. Williams,  Q. Wu,  X. Xu,  W. Zhang

 Please cite Q-Chem as follows:
 Y. Shao et al., Mol. Phys. 113, 184-215 (2015)
 DOI: 10.1080/00268976.2014.952696

 Q-Chem 5.1.2 for Intel X86 EM64T Linux

 Parts of Q-Chem use Armadillo 8.300.2 (Tropical Shenanigans).
 http://arma.sourceforge.net/

 Q-Chem begins on Wed Jul  3 20:01:35 2019  

Host: 
0

     Scratch files written to /scratch/xuedong/qchem17751//
 Dec218 |scratch|qcdevops|jenkins|workspace|build_RNUM 6581   
Processing $rem in /home/qwang/software/qchem5.1.2/config/preferences.
 MEM_TOTAL  4000 
Core orbitals will be frozen
Input Ideriv = 1
Curr. Ideriv = -1
Max.  Ideriv = 1

Checking the input file for inconsistencies... 	...done.

--------------------------------------------------------------
User input:
--------------------------------------------------------------
$molecule
0 1
Si     1.924810978     0.221250999     0.126279543
H     1.412655312     0.307098559     1.517792385
H     1.133853934    -0.817922695    -0.568974842
H     1.726171862     1.539629336    -0.510559482
N     3.598001176    -0.193061537    -0.046238154
H     3.898337608    -1.114121400     0.229631138
H     4.290301474     0.485203856     0.228290528
Si    -1.937229639    -0.350261466    -0.200868537
H    -1.704421617    -0.792966134    -1.599148532
H    -1.512561089    -1.446672224     0.694416556
H    -1.109294504     0.854175555     0.026858776
N    -3.571216783     0.057652131     0.206070237
H    -4.253899340    -0.682059868     0.247063967
H    -3.982245153     0.872798977    -0.220004283
$end

$rem
BASIS = aug-cc-pVTZ
JOB_TYPE  =  SP
METHOD  =  MP2
SCF_MAX_CYCLES  =  200
$end

--------------------------------------------------------------
 ----------------------------------------------------------------
             Standard Nuclear Orientation (Angstroms)
    I     Atom           X                Y                Z
 ----------------------------------------------------------------
    1      Si     -1.9365766230     0.2440856343    -0.0254440149
    2      H      -1.4528881323     0.7098647872    -1.3502369964
    3      H      -1.1008073943    -0.9126534087     0.3648356982
    4      H      -1.7678213593     1.3553717827     0.9335698740
    5      N      -3.5925010100    -0.2594287954     0.0478384229
    6      H      -3.8687632203    -1.0858214366    -0.4575441090
    7      H      -4.3106573626     0.4423693137    -0.0322896653
    8      Si      1.9468376759    -0.2573271760     0.1037406127
    9      H       1.7536402451    -1.0592104944     1.3386624074
   10      H       1.5405093208    -1.0946978969    -1.0441717834
   11      H       1.0774713978     0.9348440131     0.2083110898
   12      N       3.5595010986     0.3001334706    -0.1970266858
   13      H       4.2642082327    -0.3784906446    -0.4373742806
   14      H       3.9524529113     0.9888728423     0.4244032370
 ----------------------------------------------------------------
 Molecular Point Group                 C1    NOp =  1
 Largest Abelian Subgroup              C1    NOp =  1
 Nuclear Repulsion Energy =   204.3144276502 hartrees
 There are       26 alpha and       26 beta electrons
 Requested basis set is aug-cc-pVTZ
 There are 150 shells and 422 basis functions

 Total QAlloc Memory Limit   4000 MB
 Mega-Array Size       188 MB
 MEM_STATIC part       192 MB

                       Distance Matrix (Angstroms)
             Si(  1)   H (  2)   H (  3)   H (  4)   N (  5)   H (  6)
   H (  2)  1.485255
   H (  3)  1.479484  2.387048
   H (  4)  1.477546  2.394084  2.431523
   N (  5)  1.732334  2.733512  2.595328  2.592597
   H (  6)  2.385101  3.139720  2.892728  3.508358  1.007302
   H (  7)  2.382357  3.158383  3.506698  2.869229  1.007318  1.646657
   Si(  8)  3.917781  3.821995  3.128221  4.133776  5.539621  5.901073
   H (  9)  4.144523  4.543306  3.019551  4.288939  5.557617  5.902414
   H ( 10)  3.862677  3.508639  2.999166  4.567204  5.313940  5.440996
   H ( 11)  3.101012  2.980337  2.860532  2.966232  4.822933  5.384393
   N ( 12)  5.499041  5.159634  4.848197  5.547264  7.178036  7.560942
   H ( 13)  6.245560  5.890927  5.450896  6.424262  7.872578  8.163697
   H ( 14)  5.952961  5.696043  5.399518  5.754573  7.656787  8.139632
             H (  7)   Si(  8)   H (  9)   H ( 10)   H ( 11)   N ( 12)
   Si(  8)  6.297962
   H (  9)  6.396089  1.485050
   H ( 10)  6.133729  1.477835  2.392610
   H ( 11)  5.415935  1.479191  2.389802  2.429436
   N ( 12)  7.873167  1.732601  2.732634  2.596062  2.593767
   H ( 13)  8.623585  2.382791  3.149704  2.880919  3.506715  1.007427
   H ( 14)  8.293746  2.382925  3.140906  3.509338  2.883597  1.007446
             H ( 13)
   H ( 14)  1.646066
 
 A cutoff of  1.0D-08 yielded   9241 shell pairs
 There are     70365 function pairs (     89881 Cartesian)
 
 -------------------------------------------------------
 OpenMP Integral Computing Module                       
 Release: version 1.0, May 2013, Q-Chem Inc. Pittsburgh 
 -------------------------------------------------------
 Integral Job Info:
 Integral job number is                      11
 Integral operator is                         1
 short-range coefficients                     0
 long-range coefficients              100000000
 Omega coefficients                           0
 if combine SR and LR in K                    0
 Integral screening is                        0
 Integral computing path is                   2
 max size of driver memory is            800000
 size of driver memory is                776718
 size of scratch memory is             29531563
 max col of scratch BK array              10000
 max len of scratch array in speh3          662
 max len of scratch index in speh4           32
 max int batch size is                      520
 min int batch size is                       52
 fixed nKL is                                31
 max L of basis functions is                  3
 order of int derivative is                   0
 number of shells is                        150
 number of basis is                         478
 number of cartesian basis is               478
 number of contracted shell pairs          9241
 number of primitive shell pairs          27107
 maxK2 (contraction) of shell pair          169
 max number of K2 of shell pair               1
 max number of CS2 of shell pair           1682
 max number of PS2 of shell pair           2665
 mem total for path MDJ                  725420
 -------------------------------------------------------
 Smallest overlap matrix eigenvalue = 1.29E-05

 Q-Chem warning in module stvman/mkSTV.C, line 306:

 Overlap eigenvalue is smaller than square root of threshold
 Use THRESH >= 12 to get rid of this warning


 Scale SEOQF with 1.000000e-01/1.000000e-01/1.000000e-01

 Standard Electronic Orientation quadrupole field applied
 Nucleus-field energy     =     0.0000000131 hartrees
 Guess from superposition of atomic densities
 Warning:  Energy on first SCF cycle will be non-variational
 SAD guess density has 52.000000 electrons

 -----------------------------------------------------------------------
  General SCF calculation program by
  Eric Jon Sundstrom, Paul Horn, Yuezhi Mao, Dmitri Zuev, Alec White,
  David Stuck, Shaama M.S., Shane Yost, Joonho Lee, David Small,
  Daniel Levine, Susi Lehtola, Hugh Burton, Evgeny Epifanovsky
 -----------------------------------------------------------------------
 Hartree-Fock
 using 6 threads for integral computing
 -------------------------------------------------------
 OpenMP Integral computing Module                
 Release: version 1.0, May 2013, Q-Chem Inc. Pittsburgh 
 -------------------------------------------------------
 A restricted SCF calculation will be
 performed using DIIS
 SCF converges when DIIS error is below 1.0e-05
 ---------------------------------------
  Cycle       Energy         DIIS error
 ---------------------------------------
    1    -692.9279242080      1.69e-02  
    2    -692.6238464025      1.67e-03  
    3    -692.6866996123      7.79e-04  
    4    -692.6987692541      1.96e-04  
    5    -692.7000349419      2.57e-05  
    6    -692.7000693473      6.07e-06  Convergence criterion met
 ---------------------------------------
 SCF time:   CPU 366.64s  wall 61.00s 
 SCF   energy in the final basis set =     -692.7000693473
 Total energy in the final basis set =     -692.7000693473
 
 Components of the MP2 correlation energy:
        aaaa  correlation energy =        -0.0714946385 au
        abab  correlation energy =        -0.5803140165 au
        bbbb  correlation energy =        -0.0714946385 au
        non-Brillouin singles    =        -0.0000000000 au

 Total  MP2   correlation energy =                    -0.72330329 au
        MP2         total energy =                  -693.42337264 au
 
 --------------------------------------------------------------
 
                    Orbital Energies (a.u.)
 --------------------------------------------------------------
 
 Alpha MOs
 -- Occupied --
-68.777 -68.776 -15.536 -15.536  -6.123  -6.122  -4.229  -4.229
 -4.229  -4.229  -4.229  -4.228  -1.135  -1.135  -0.727  -0.713
 -0.655  -0.655  -0.559  -0.546  -0.490  -0.490  -0.476  -0.470
 -0.403  -0.400
 -- Virtual --
  0.027   0.031   0.044   0.049   0.051   0.056   0.065   0.069
  0.070   0.077   0.078   0.088   0.091   0.099   0.106   0.117
  0.123   0.139   0.149   0.157   0.159   0.160   0.167   0.172
  0.177   0.177   0.179   0.182   0.184   0.190   0.211   0.221
  0.227   0.232   0.239   0.250   0.257   0.262   0.268   0.276
  0.280   0.282   0.286   0.303   0.304   0.314   0.316   0.323
  0.325   0.331   0.335   0.341   0.343   0.352   0.366   0.370
  0.377   0.382   0.388   0.391   0.398   0.401   0.403   0.414
  0.418   0.420   0.422   0.442   0.447   0.453   0.464   0.470
  0.470   0.476   0.480   0.486   0.497   0.505   0.522   0.532
  0.540   0.549   0.560   0.567   0.572   0.596   0.605   0.615
  0.616   0.618   0.637   0.647   0.652   0.659   0.663   0.673
  0.675   0.680   0.688   0.694   0.701   0.708   0.710   0.725
  0.731   0.740   0.742   0.749   0.760   0.770   0.790   0.809
  0.814   0.841   0.861   0.882   0.883   0.892   0.913   0.921
  0.928   0.934   0.935   0.942   0.955   0.968   0.977   0.980
  0.992   1.005   1.012   1.021   1.022   1.037   1.043   1.046
  1.047   1.061   1.062   1.078   1.082   1.089   1.099   1.104
  1.108   1.118   1.129   1.132   1.136   1.140   1.144   1.161
  1.167   1.179   1.190   1.194   1.207   1.213   1.217   1.230
  1.232   1.234   1.253   1.260   1.267   1.273   1.284   1.294
  1.296   1.315   1.326   1.331   1.335   1.342   1.354   1.359
  1.365   1.367   1.378   1.393   1.396   1.404   1.408   1.416
  1.426   1.435   1.447   1.449   1.456   1.460   1.468   1.488
  1.497   1.510   1.518   1.533   1.536   1.552   1.555   1.567
  1.581   1.586   1.600   1.605   1.618   1.642   1.654   1.690
  1.727   1.738   1.750   1.762   1.766   1.778   1.815   1.819
  1.841   1.857   1.897   1.903   1.913   1.917   1.946   1.960
  1.973   1.975   1.988   2.020   2.036   2.038   2.049   2.061
  2.105   2.109   2.138   2.150   2.175   2.179   2.184   2.217
  2.230   2.239   2.253   2.255   2.266   2.268   2.290   2.305
  2.327   2.351   2.369   2.375   2.400   2.420   2.448   2.453
  2.486   2.489   2.494   2.501   2.531   2.544   2.709   2.725
  2.908   2.912   3.144   3.154   3.181   3.234   3.392   3.486
  3.584   3.678   3.686   3.705   3.732   3.743   3.758   3.772
  3.783   3.813   3.986   4.012   4.013   4.020   4.038   4.062
  4.065   4.103   4.114   4.124   4.145   4.159   4.168   4.169
  4.178   4.184   4.194   4.201   4.211   4.221   4.231   4.238
  4.244   4.252   4.261   4.277   4.286   4.292   4.310   4.322
  4.349   4.372   4.376   4.393   4.410   4.425   4.462   4.463
  4.472   4.484   4.510   4.517   4.520   4.539   4.555   4.572
  4.579   4.599   4.605   4.620   4.645   4.688   4.703   4.725
  4.737   4.750   4.763   4.780   4.815   4.816   4.820   4.823
  4.837   4.846   4.858   4.877   4.926   4.959   4.985   5.004
  5.044   5.057   5.111   5.124   5.138   5.141   5.151   5.152
  5.179   5.194   5.220   5.249   5.319   5.333   5.342   5.344
  5.436   5.450   5.522   5.524   5.582   5.590   5.914   5.916
  5.964   5.966   6.053   6.054   6.190   6.193   6.196   6.196
  6.488   6.494   6.627   6.629   6.739   6.742   7.758   7.762
  9.014   9.102  16.314  16.340
 --------------------------------------------------------------
 
          Ground-State Mulliken Net Atomic Charges

     Atom                 Charge (a.u.)
  ----------------------------------------
      1 Si                    1.222539
      2 H                    -0.303483
      3 H                    -0.236550
      4 H                    -0.263341
      5 N                    -0.641684
      6 H                     0.131441
      7 H                     0.110866
      8 Si                    1.152465
      9 H                    -0.309693
     10 H                    -0.257708
     11 H                    -0.228881
     12 N                    -0.623657
     13 H                     0.116343
     14 H                     0.131344
  ----------------------------------------
  Sum of atomic charges =    -0.000000

 -----------------------------------------------------------------
                    Cartesian Multipole Moments
 -----------------------------------------------------------------
    Charge (ESU x 10^10)
                -0.0000
    Dipole Moment (Debye)
         X       0.1674      Y      -0.1771      Z      -0.2260
       Tot       0.3324
    Quadrupole Moments (Debye-Ang)
        XX     -31.1627     XY      -1.3446     YY     -43.2983
        XZ       6.3617     YZ       3.1195     ZZ     -47.3060
    Octopole Moments (Debye-Ang^2)
       XXX       7.8048    XXY      -0.4160    XYY      -2.6101
       YYY      -0.9565    XXZ      -7.3267    XYZ       2.9999
       YYZ      -1.3465    XZZ       1.0649    YZZ       0.0757
       ZZZ       0.1120
    Hexadecapole Moments (Debye-Ang^3)
      XXXX   -1419.8255   XXXY     -35.2527   XXYY    -278.7653
      XYYY      16.5682   YYYY    -121.2267   XXXZ      90.6442
      XXYZ      44.4595   XYYZ      10.5987   YYYZ       4.4702
      XXZZ    -339.0634   XYZZ       6.3472   YYZZ     -39.7609
      XZZZ       2.5337   YZZZ       4.8147   ZZZZ    -107.2050
 -----------------------------------------------------------------
Archival summary:
1\1\gm4.localdomain\SP\MP2\BasisUnspecified\i2210\xuedong\WedJul320:08:062019WedJul320:08:062019\0\\#,MP2,BasisUnspecified,\\0,1\Si\H,1,1.47755\H,1,1.47948,2,110.628\H,1,1.48525,2,107.811,3,-116.983,0\N,1,1.73233,2,107.477,3,117.153,0\H,5,1.0073,1,118.646,2,-172.556,0\H,5,1.00732,1,118.4,2,50.492,0\H,3,2.86053,1,84.8808,2,-57.1395,0\Si,8,1.47919,3,86.0369,1,-160.622,0\H,9,1.47783,8,110.487,3,57.0246,0\H,9,1.48505,8,107.454,3,-60.226,0\N,9,1.7326,8,107.458,3,174.219,0\H,12,1.00743,9,118.409,8,-170.761,0\H,12,1.00745,9,118.42,8,52.7231,0\\HF=-692.700069\MP2=-693.423373\\@

 Total job time:  390.27s(wall), 2313.45s(cpu) 
 Wed Jul  3 20:08:06 2019

        *************************************************************
        *                                                           *
        *  Thank you very much for using Q-Chem.  Have a nice day.  *
        *                                                           *
        *************************************************************



Running Job 2 of 3 ../qm_inp/SiH3NH2_SiH3NH2_con3.100.qcinp
qchem ../qm_inp/SiH3NH2_SiH3NH2_con3.100.qcinp_17751.1 /scratch/xuedong/qchem17751/ 1
/home/qwang/software/qchem5.1.2/exe/qcprog.exe_s ../qm_inp/SiH3NH2_SiH3NH2_con3.100.qcinp_17751.1 /scratch/xuedong/qchem17751/
Check license passed

                  Welcome to Q-Chem
     A Quantum Leap Into The Future Of Chemistry


 Q-Chem 5.1, Q-Chem, Inc., Pleasanton, CA (2018)

 Yihan Shao,  Zhengting Gan,  E. Epifanovsky,  A. T. B. Gilbert,  M. Wormit,  
 J. Kussmann,  A. W. Lange,  A. Behn,  Jia Deng,  Xintian Feng,  D. Ghosh,  
 M. Goldey,  P. R. Horn,  L. D. Jacobson,  I. Kaliman,  T. Kus,  A. Landau,  
 Jie Liu,  E. I. Proynov,  R. M. Richard,  R. P. Steele,  E. J. Sundstrom,  
 H. L. Woodcock III,  P. M. Zimmerman,  D. Zuev,  B. Albrecht,  E. Alguire,  
 S. A. Baeppler,  D. Barton,  Z. Benda,  Y. A. Bernard,  E. J. Berquist,  
 K. B. Bravaya,  H. Burton,  D. Casanova,  Chun-Min Chang,  Yunqing Chen,  
 A. Chien,  K. D. Closser,  M. P. Coons,  S. Coriani,  S. Dasgupta,  
 A. L. Dempwolff,  M. Diedenhofen,  Hainam Do,  R. G. Edgar,  Po-Tung Fang,  
 S. Faraji,  S. Fatehi,  Qingguo Feng,  K. D. Fenk,  J. Fosso-Tande,  
 J. Gayvert,  Qinghui Ge,  A. Ghysels,  G. Gidofalvi,  J. Gomes,  
 J. Gonthier,  A. Gunina,  D. Hait,  M. W. D. Hanson-Heine,  
 P. H. P. Harbach,  A. W. Hauser,  J. E. Herr,  E. G. Hohenstein,  
 Z. C. Holden,  Kerwin Hui,  B. C. Huynh,  T.-C. Jagau,  Hyunjun Ji,  
 B. Kaduk,  K. Khistyaev,  Jaehoon Kim,  P. Klunzinger,  K. Koh,  
 D. Kosenkov,  L. Koulias,  T. Kowalczyk,  C. M. Krauter,  A. Kunitsa,  
 Ka Un Lao,  A. Laurent,  K. V. Lawler,  Joonho Lee,  D. Lefrancois,  
 S. Lehtola,  D. S. Levine,  Yi-Pei Li,  You-Sheng Lin,  Fenglai Liu,  
 E. Livshits,  A. Luenser,  P. Manohar,  E. Mansoor,  S. F. Manzer,  
 Shan-Ping Mao,  Yuezhi Mao,  N. Mardirossian,  A. V. Marenich,  
 T. Markovich,  L. A. Martinez-Martinez,  S. A. Maurer,  N. J. Mayhall,  
 S. C. McKenzie,  J.-M. Mewes,  A. F. Morrison,  J. W. Mullinax,  K. Nanda,  
 T. S. Nguyen-Beck,  R. Olivares-Amaya,  J. A. Parkhill,  T. M. Perrine,  
 F. Plasser,  P. Pokhilko,  S. Prager,  A. Prociuk,  E. Ramos,  D. R. Rehn,  
 F. Rob,  M. Schneider,  N. Sergueev,  S. M. Sharada,  S. Sharma,  
 D. W. Small,  T. Stauch,  T. Stein,  Yu-Chuan Su,  A. J. W. Thom,  
 A. Tkatchenko,  T. Tsuchimochi,  N. M. Tubman,  L. Vogt,  M. L. Vidal,  
 O. Vydrov,  M. A. Watson,  J. Wenzel,  M. de Wergifosse,  T. A. Wesolowski,  
 A. White,  J. Witte,  A. Yamada,  Jun Yang,  K. Yao,  S. Yeganeh,  
 S. R. Yost,  Zhi-Qiang You,  A. Zech,  Igor Ying Zhang,  Xing Zhang,  
 Yan Zhao,  Ying Zhu,  B. R. Brooks,  G. K. L. Chan,  C. J. Cramer,  
 M. S. Gordon,  W. J. Hehre,  A. Klamt,  M. W. Schmidt,  C. D. Sherrill,  
 D. G. Truhlar,  A. Aspuru-Guzik,  R. Baer,  A. T. Bell,  N. A. Besley,  
 Jeng-Da Chai,  A. E. DePrince, III,  R. A. DiStasio Jr.,  A. Dreuw,  
 B. D. Dunietz,  T. R. Furlani,  Chao-Ping Hsu,  Yousung Jung,  Jing Kong,  
 D. S. Lambrecht,  WanZhen Liang,  C. Ochsenfeld,  V. A. Rassolov,  
 L. V. Slipchenko,  J. E. Subotnik,  T. Van Voorhis,  J. M. Herbert,  
 A. I. Krylov,  P. M. W. Gill,  M. Head-Gordon

 Contributors to earlier versions of Q-Chem not listed above: 
 R. D. Adamson,  B. Austin,  J. Baker,  G. J. O. Beran,  K. Brandhorst,  
 S. T. Brown,  E. F. C. Byrd,  A. K. Chakraborty,  C.-L. Cheng,  
 Siu Hung Chien,  D. M. Chipman,  D. L. Crittenden,  H. Dachsel,  
 R. J. Doerksen,  A. D. Dutoi,  L. Fusti-Molnar,  W. A. Goddard III,  
 A. Golubeva-Zadorozhnaya,  S. R. Gwaltney,  G. Hawkins,  A. Heyden,  
 S. Hirata,  G. Kedziora,  F. J. Keil,  C. Kelley,  Jihan Kim,  R. A. King,  
 R. Z. Khaliullin,  P. P. Korambath,  W. Kurlancheek,  A. M. Lee,  M. S. Lee,  
 S. V. Levchenko,  Ching Yeh Lin,  D. Liotard,  R. C. Lochan,  I. Lotan,  
 P. E. Maslen,  N. Nair,  D. P. O'Neill,  D. Neuhauser,  E. Neuscamman,  
 C. M. Oana,  R. Olson,  B. Peters,  R. Peverati,  P. A. Pieniazek,  
 Y. M. Rhee,  J. Ritchie,  M. A. Rohrdanz,  E. Rosta,  N. J. Russ,  
 H. F. Schaefer III,  N. E. Schultz,  N. Shenvi,  A. C. Simmonett,  A. Sodt,  
 D. Stuck,  K. S. Thanthiriwatte,  V. Vanovschi,  Tao Wang,  A. Warshel,  
 C. F. Williams,  Q. Wu,  X. Xu,  W. Zhang

 Please cite Q-Chem as follows:
 Y. Shao et al., Mol. Phys. 113, 184-215 (2015)
 DOI: 10.1080/00268976.2014.952696

 Q-Chem 5.1.2 for Intel X86 EM64T Linux

 Parts of Q-Chem use Armadillo 8.300.2 (Tropical Shenanigans).
 http://arma.sourceforge.net/

 Q-Chem begins on Wed Jul  3 20:08:06 2019  

Host: 
0

     Scratch files written to /scratch/xuedong/qchem17751//
 Dec218 |scratch|qcdevops|jenkins|workspace|build_RNUM 6581   
Processing $rem in /home/qwang/software/qchem5.1.2/config/preferences.
 MEM_TOTAL  4000 
Core orbitals will be frozen
Input Ideriv = 1
Curr. Ideriv = -1
Max.  Ideriv = 1

Checking the input file for inconsistencies... 	...done.

--------------------------------------------------------------
User input:
--------------------------------------------------------------

$molecule
0 1
Si     1.924810978     0.221250999     0.126279543
H     1.412655312     0.307098559     1.517792385
H     1.133853934    -0.817922695    -0.568974842
H     1.726171862     1.539629336    -0.510559482
N     3.598001176    -0.193061537    -0.046238154
H     3.898337608    -1.114121400     0.229631138
H     4.290301474     0.485203856     0.228290528
@Si   -1.937229639    -0.350261466    -0.200868537
@H    -1.704421617    -0.792966134    -1.599148532
@H    -1.512561089    -1.446672224     0.694416556
@H    -1.109294504     0.854175555     0.026858776
@N    -3.571216783     0.057652131     0.206070237
@H    -4.253899340    -0.682059868     0.247063967
@H    -3.982245153     0.872798977    -0.220004283
$end

$rem
BASIS = aug-cc-pVTZ
JOB_TYPE  =  SP
METHOD  =  MP2
SCF_MAX_CYCLES  =  200
$end

--------------------------------------------------------------
 ----------------------------------------------------------------
             Standard Nuclear Orientation (Angstroms)
    I     Atom           X                Y                Z
 ----------------------------------------------------------------
    1      Si      1.9248109780     0.2212509990     0.1262795430
    2      H       1.4126553120     0.3070985590     1.5177923850
    3      H       1.1338539340    -0.8179226950    -0.5689748420
    4      H       1.7261718620     1.5396293360    -0.5105594820
    5      N       3.5980011760    -0.1930615370    -0.0462381540
    6      H       3.8983376080    -1.1141214000     0.2296311380
    7      H       4.2903014740     0.4852038560     0.2282905280
    8      GH     -1.9372296390    -0.3502614660    -0.2008685370
    9      GH     -1.7044216170    -0.7929661340    -1.5991485320
   10      GH     -1.5125610890    -1.4466722240     0.6944165560
   11      GH     -1.1092945040     0.8541755550     0.0268587760
   12      GH     -3.5712167830     0.0576521310     0.2060702370
   13      GH     -4.2538993400    -0.6820598680     0.2470639670
   14      GH     -3.9822451530     0.8727989770    -0.2200042830
 ----------------------------------------------------------------
 Nuclear Repulsion Energy =    64.7143342273 hartrees
 There are       13 alpha and       13 beta electrons
 Requested basis set is aug-cc-pVTZ
 There are 150 shells and 422 basis functions

 Total QAlloc Memory Limit   4000 MB
 Mega-Array Size       188 MB
 MEM_STATIC part       192 MB

                       Distance Matrix (Angstroms)
             Si(  1)   H (  2)   H (  3)   H (  4)   N (  5)   H (  6)
   H (  2)  1.485255
   H (  3)  1.479484  2.387048
   H (  4)  1.477546  2.394084  2.431523
   N (  5)  1.732334  2.733512  2.595328  2.592597
   H (  6)  2.385101  3.139720  2.892728  3.508358  1.007302
   H (  7)  2.382357  3.158383  3.506698  2.869229  1.007318  1.646657
   GH(  8)  3.917781  3.821995  3.128221  4.133776  5.539621  5.901073
   GH(  9)  4.144523  4.543306  3.019551  4.288939  5.557617  5.902414
   GH( 10)  3.862677  3.508639  2.999166  4.567204  5.313940  5.440996
   GH( 11)  3.101012  2.980337  2.860532  2.966232  4.822933  5.384393
   GH( 12)  5.499041  5.159634  4.848197  5.547264  7.178036  7.560942
   GH( 13)  6.245560  5.890927  5.450896  6.424262  7.872578  8.163697
   GH( 14)  5.952961  5.696043  5.399518  5.754573  7.656787  8.139632
             H (  7)   GH(  8)   GH(  9)   GH( 10)   GH( 11)   GH( 12)
   GH(  8)  6.297962
   GH(  9)  6.396089  1.485050
   GH( 10)  6.133729  1.477835  2.392610
   GH( 11)  5.415935  1.479191  2.389802  2.429436
   GH( 12)  7.873167  1.732601  2.732634  2.596062  2.593767
   GH( 13)  8.623585  2.382791  3.149704  2.880919  3.506715  1.007427
   GH( 14)  8.293746  2.382925  3.140906  3.509338  2.883597  1.007446
             GH( 13)
   GH( 14)  1.646066
 
 A cutoff of  1.0D-08 yielded   9241 shell pairs
 There are     70365 function pairs (     89881 Cartesian)
 
 -------------------------------------------------------
 OpenMP Integral Computing Module                       
 Release: version 1.0, May 2013, Q-Chem Inc. Pittsburgh 
 -------------------------------------------------------
 Integral Job Info:
 Integral job number is                      11
 Integral operator is                         1
 short-range coefficients                     0
 long-range coefficients              100000000
 Omega coefficients                           0
 if combine SR and LR in K                    0
 Integral screening is                        0
 Integral computing path is                   2
 max size of driver memory is            800000
 size of driver memory is                776718
 size of scratch memory is             29531563
 max col of scratch BK array              10000
 max len of scratch array in speh3          662
 max len of scratch index in speh4           32
 max int batch size is                      520
 min int batch size is                       52
 fixed nKL is                                31
 max L of basis functions is                  3
 order of int derivative is                   0
 number of shells is                        150
 number of basis is                         478
 number of cartesian basis is               478
 number of contracted shell pairs          9241
 number of primitive shell pairs          27107
 maxK2 (contraction) of shell pair          169
 max number of K2 of shell pair               1
 max number of CS2 of shell pair           1682
 max number of PS2 of shell pair           2665
 mem total for path MDJ                  725420
 -------------------------------------------------------
 Smallest overlap matrix eigenvalue = 1.29E-05

 Q-Chem warning in module stvman/mkSTV.C, line 306:

 Overlap eigenvalue is smaller than square root of threshold
 Use THRESH >= 12 to get rid of this warning


 Scale SEOQF with 1.000000e-01/1.000000e-01/1.000000e-01

 Standard Electronic Orientation quadrupole field applied
 Nucleus-field energy     =     0.0000000066 hartrees
 Guess from superposition of atomic densities
 Warning:  Energy on first SCF cycle will be non-variational
 SAD guess density has 26.000000 electrons

 -----------------------------------------------------------------------
  General SCF calculation program by
  Eric Jon Sundstrom, Paul Horn, Yuezhi Mao, Dmitri Zuev, Alec White,
  David Stuck, Shaama M.S., Shane Yost, Joonho Lee, David Small,
  Daniel Levine, Susi Lehtola, Hugh Burton, Evgeny Epifanovsky
 -----------------------------------------------------------------------
 Hartree-Fock
 using 6 threads for integral computing
 -------------------------------------------------------
 OpenMP Integral computing Module                
 Release: version 1.0, May 2013, Q-Chem Inc. Pittsburgh 
 -------------------------------------------------------
 A restricted SCF calculation will be
 performed using DIIS
 SCF converges when DIIS error is below 1.0e-05
 ---------------------------------------
  Cycle       Energy         DIIS error
 ---------------------------------------
    1    -346.4444446429      1.19e-02  
    2    -346.3136462951      1.17e-03  
    3    -346.3442641032      5.50e-04  
    4    -346.3502456295      1.37e-04  
    5    -346.3508542768      1.80e-05  
    6    -346.3508712375      4.33e-06  Convergence criterion met
 ---------------------------------------
 SCF time:   CPU 340.07s  wall 57.00s 
 SCF   energy in the final basis set =     -346.3508712375
 Total energy in the final basis set =     -346.3508712375
 
 Components of the MP2 correlation energy:
        aaaa  correlation energy =        -0.0353254430 au
        abab  correlation energy =        -0.2892691447 au
        bbbb  correlation energy =        -0.0353254430 au
        non-Brillouin singles    =        -0.0000000000 au

 Total  MP2   correlation energy =                    -0.35992003 au
        MP2         total energy =                  -346.71079127 au
 
 --------------------------------------------------------------
 
                    Orbital Energies (a.u.)
 --------------------------------------------------------------
 
 Alpha MOs
 -- Occupied --
-68.778 -15.538  -6.125  -4.231  -4.231  -4.231  -1.137  -0.721
 -0.657  -0.554  -0.492  -0.476  -0.403
 -- Virtual --
  0.023   0.029   0.041   0.048   0.049   0.051   0.065   0.067
  0.068   0.072   0.076   0.087   0.090   0.092   0.100   0.106
  0.118   0.128   0.142   0.148   0.151   0.158   0.163   0.167
  0.172   0.174   0.180   0.190   0.193   0.206   0.211   0.217
  0.224   0.232   0.242   0.242   0.248   0.259   0.269   0.275
  0.278   0.283   0.293   0.299   0.308   0.313   0.319   0.331
  0.334   0.340   0.340   0.346   0.354   0.360   0.369   0.371
  0.377   0.384   0.385   0.389   0.401   0.405   0.410   0.416
  0.426   0.431   0.443   0.448   0.454   0.460   0.462   0.465
  0.471   0.475   0.488   0.494   0.500   0.508   0.523   0.533
  0.534   0.559   0.571   0.579   0.593   0.606   0.614   0.619
  0.637   0.637   0.650   0.655   0.665   0.670   0.683   0.685
  0.693   0.701   0.707   0.722   0.733   0.734   0.741   0.749
  0.761   0.772   0.779   0.785   0.798   0.810   0.816   0.822
  0.824   0.837   0.859   0.870   0.878   0.881   0.916   0.928
  0.933   0.942   0.951   0.958   0.960   0.977   0.982   0.991
  1.008   1.025   1.027   1.033   1.036   1.050   1.053   1.058
  1.067   1.080   1.087   1.092   1.107   1.116   1.119   1.124
  1.129   1.143   1.147   1.155   1.164   1.175   1.178   1.180
  1.191   1.195   1.206   1.213   1.218   1.223   1.230   1.235
  1.249   1.265   1.282   1.284   1.290   1.303   1.308   1.316
  1.332   1.340   1.348   1.352   1.362   1.369   1.371   1.382
  1.397   1.399   1.413   1.419   1.432   1.445   1.453   1.455
  1.467   1.476   1.500   1.502   1.525   1.537   1.539   1.552
  1.556   1.566   1.572   1.579   1.583   1.599   1.620   1.631
  1.636   1.655   1.668   1.690   1.696   1.710   1.730   1.744
  1.751   1.766   1.810   1.822   1.832   1.841   1.875   1.880
  1.900   1.904   1.928   1.942   1.959   1.961   1.972   2.001
  2.006   2.030   2.043   2.051   2.056   2.087   2.102   2.105
  2.143   2.152   2.172   2.182   2.191   2.234   2.244   2.249
  2.261   2.277   2.288   2.332   2.338   2.362   2.375   2.399
  2.416   2.429   2.444   2.464   2.487   2.510   2.517   2.534
  2.570   2.613   2.694   2.717   2.726   2.822   2.847   2.853
  2.873   2.910   2.976   3.008   3.080   3.124   3.137   3.150
  3.219   3.261   3.432   3.548   3.638   3.710   3.725   3.755
  3.772   3.785   3.834   3.993   4.017   4.057   4.084   4.108
  4.118   4.139   4.163   4.166   4.180   4.204   4.222   4.243
  4.266   4.270   4.276   4.295   4.313   4.317   4.342   4.355
  4.378   4.382   4.405   4.419   4.446   4.455   4.463   4.473
  4.496   4.508   4.518   4.529   4.541   4.561   4.568   4.578
  4.593   4.610   4.623   4.633   4.649   4.661   4.679   4.688
  4.704   4.733   4.754   4.763   4.790   4.804   4.819   4.824
  4.848   4.863   4.932   4.953   4.978   4.994   5.024   5.041
  5.053   5.101   5.107   5.123   5.139   5.147   5.166   5.187
  5.196   5.211   5.217   5.282   5.300   5.322   5.339   5.345
  5.349   5.395   5.399   5.434   5.446   5.494   5.520   5.579
  5.593   5.754   5.759   5.911   5.962   5.981   6.033   6.048
  6.101   6.168   6.188   6.194   6.217   6.224   6.377   6.487
  6.625   6.632   6.644   6.740   6.834   7.431   7.502   7.517
  7.610   7.759   7.823   8.109   9.043   9.294   9.361  10.112
 10.958  11.984  15.105  16.328  20.377  20.480  21.148  56.886
107.026
 --------------------------------------------------------------
 
          Ground-State Mulliken Net Atomic Charges

     Atom                 Charge (a.u.)
  ----------------------------------------
      1 Si                    1.183189
      2 H                    -0.306523
      3 H                    -0.223166
      4 H                    -0.264959
      5 N                    -0.638587
      6 H                     0.132346
      7 H                     0.110610
      8 GH                    0.010351
      9 GH                   -0.000530
     10 GH                    0.000399
     11 GH                    0.002089
     12 GH                   -0.004412
     13 GH                   -0.000447
     14 GH                   -0.000360
  ----------------------------------------
  Sum of atomic charges =    -0.000001

 -----------------------------------------------------------------
                    Cartesian Multipole Moments
 -----------------------------------------------------------------
    Charge (ESU x 10^10)
                -0.0000
    Dipole Moment (Debye)
         X       0.8922      Y      -0.2061      Z       0.8495
       Tot       1.2491
    Quadrupole Moments (Debye-Ang)
        XX     -16.2222     XY      -0.5083     YY     -20.8220
        XZ       3.9919     YZ      -0.3965     ZZ     -24.1259
    Octopole Moments (Debye-Ang^2)
       XXX    -127.0608    XXY      -2.2563    XYY     -45.7940
       YYY      -9.9114    XXZ      15.0149    XYZ      -0.9953
       YYZ      -0.2953    XZZ     -58.0805    YZZ      -2.3338
       ZZZ      -7.6269
    Hexadecapole Moments (Debye-Ang^3)
      XXXX    -731.1108   XXXY       0.2362   XXYY    -127.8589
      XYYY     -15.2452   YYYY     -57.6192   XXXZ      59.7046
      XXYZ      -3.7090   XYYZ       1.2955   YYYZ      -1.4912
      XXZZ    -174.8668   XYZZ      -1.3276   YYZZ     -18.5396
      XZZZ     -12.2752   YZZZ      -2.2065   ZZZZ     -54.6924
 -----------------------------------------------------------------
Archival summary:
1\1\gm4.localdomain\SP\MP2\BasisUnspecified\i115h7\xuedong\WedJul320:11:432019WedJul320:11:432019\0\\#,MP2,BasisUnspecified,\\0,1\Si\H,1,1.47755\H,1,1.47948,2,110.628\H,1,1.48525,2,107.811,3,-116.983,0\N,1,1.73233,2,107.477,3,117.153,0\H,5,1.0073,1,118.646,2,-172.556,0\H,5,1.00732,1,118.4,2,50.492,0\Gh,3,2.86053,1,84.8808,2,-57.1395,0\Gh,8,1.47919,3,86.0369,1,-160.622,0\Gh,9,1.47783,8,110.487,3,57.0246,0\Gh,9,1.48505,8,107.454,3,-60.226,0\Gh,9,1.7326,8,107.458,3,174.219,0\Gh,12,1.00743,9,118.409,8,-170.761,0\Gh,12,1.00745,9,118.42,8,52.7231,0\\HF=-346.350871\MP2=-346.710791\\@

 Total job time:  217.54s(wall), 1297.52s(cpu) 
 Wed Jul  3 20:11:43 2019

        *************************************************************
        *                                                           *
        *  Thank you very much for using Q-Chem.  Have a nice day.  *
        *                                                           *
        *************************************************************



Running Job 3 of 3 ../qm_inp/SiH3NH2_SiH3NH2_con3.100.qcinp
qchem ../qm_inp/SiH3NH2_SiH3NH2_con3.100.qcinp_17751.2 /scratch/xuedong/qchem17751/ 1
/home/qwang/software/qchem5.1.2/exe/qcprog.exe_s ../qm_inp/SiH3NH2_SiH3NH2_con3.100.qcinp_17751.2 /scratch/xuedong/qchem17751/
Check license passed

                  Welcome to Q-Chem
     A Quantum Leap Into The Future Of Chemistry


 Q-Chem 5.1, Q-Chem, Inc., Pleasanton, CA (2018)

 Yihan Shao,  Zhengting Gan,  E. Epifanovsky,  A. T. B. Gilbert,  M. Wormit,  
 J. Kussmann,  A. W. Lange,  A. Behn,  Jia Deng,  Xintian Feng,  D. Ghosh,  
 M. Goldey,  P. R. Horn,  L. D. Jacobson,  I. Kaliman,  T. Kus,  A. Landau,  
 Jie Liu,  E. I. Proynov,  R. M. Richard,  R. P. Steele,  E. J. Sundstrom,  
 H. L. Woodcock III,  P. M. Zimmerman,  D. Zuev,  B. Albrecht,  E. Alguire,  
 S. A. Baeppler,  D. Barton,  Z. Benda,  Y. A. Bernard,  E. J. Berquist,  
 K. B. Bravaya,  H. Burton,  D. Casanova,  Chun-Min Chang,  Yunqing Chen,  
 A. Chien,  K. D. Closser,  M. P. Coons,  S. Coriani,  S. Dasgupta,  
 A. L. Dempwolff,  M. Diedenhofen,  Hainam Do,  R. G. Edgar,  Po-Tung Fang,  
 S. Faraji,  S. Fatehi,  Qingguo Feng,  K. D. Fenk,  J. Fosso-Tande,  
 J. Gayvert,  Qinghui Ge,  A. Ghysels,  G. Gidofalvi,  J. Gomes,  
 J. Gonthier,  A. Gunina,  D. Hait,  M. W. D. Hanson-Heine,  
 P. H. P. Harbach,  A. W. Hauser,  J. E. Herr,  E. G. Hohenstein,  
 Z. C. Holden,  Kerwin Hui,  B. C. Huynh,  T.-C. Jagau,  Hyunjun Ji,  
 B. Kaduk,  K. Khistyaev,  Jaehoon Kim,  P. Klunzinger,  K. Koh,  
 D. Kosenkov,  L. Koulias,  T. Kowalczyk,  C. M. Krauter,  A. Kunitsa,  
 Ka Un Lao,  A. Laurent,  K. V. Lawler,  Joonho Lee,  D. Lefrancois,  
 S. Lehtola,  D. S. Levine,  Yi-Pei Li,  You-Sheng Lin,  Fenglai Liu,  
 E. Livshits,  A. Luenser,  P. Manohar,  E. Mansoor,  S. F. Manzer,  
 Shan-Ping Mao,  Yuezhi Mao,  N. Mardirossian,  A. V. Marenich,  
 T. Markovich,  L. A. Martinez-Martinez,  S. A. Maurer,  N. J. Mayhall,  
 S. C. McKenzie,  J.-M. Mewes,  A. F. Morrison,  J. W. Mullinax,  K. Nanda,  
 T. S. Nguyen-Beck,  R. Olivares-Amaya,  J. A. Parkhill,  T. M. Perrine,  
 F. Plasser,  P. Pokhilko,  S. Prager,  A. Prociuk,  E. Ramos,  D. R. Rehn,  
 F. Rob,  M. Schneider,  N. Sergueev,  S. M. Sharada,  S. Sharma,  
 D. W. Small,  T. Stauch,  T. Stein,  Yu-Chuan Su,  A. J. W. Thom,  
 A. Tkatchenko,  T. Tsuchimochi,  N. M. Tubman,  L. Vogt,  M. L. Vidal,  
 O. Vydrov,  M. A. Watson,  J. Wenzel,  M. de Wergifosse,  T. A. Wesolowski,  
 A. White,  J. Witte,  A. Yamada,  Jun Yang,  K. Yao,  S. Yeganeh,  
 S. R. Yost,  Zhi-Qiang You,  A. Zech,  Igor Ying Zhang,  Xing Zhang,  
 Yan Zhao,  Ying Zhu,  B. R. Brooks,  G. K. L. Chan,  C. J. Cramer,  
 M. S. Gordon,  W. J. Hehre,  A. Klamt,  M. W. Schmidt,  C. D. Sherrill,  
 D. G. Truhlar,  A. Aspuru-Guzik,  R. Baer,  A. T. Bell,  N. A. Besley,  
 Jeng-Da Chai,  A. E. DePrince, III,  R. A. DiStasio Jr.,  A. Dreuw,  
 B. D. Dunietz,  T. R. Furlani,  Chao-Ping Hsu,  Yousung Jung,  Jing Kong,  
 D. S. Lambrecht,  WanZhen Liang,  C. Ochsenfeld,  V. A. Rassolov,  
 L. V. Slipchenko,  J. E. Subotnik,  T. Van Voorhis,  J. M. Herbert,  
 A. I. Krylov,  P. M. W. Gill,  M. Head-Gordon

 Contributors to earlier versions of Q-Chem not listed above: 
 R. D. Adamson,  B. Austin,  J. Baker,  G. J. O. Beran,  K. Brandhorst,  
 S. T. Brown,  E. F. C. Byrd,  A. K. Chakraborty,  C.-L. Cheng,  
 Siu Hung Chien,  D. M. Chipman,  D. L. Crittenden,  H. Dachsel,  
 R. J. Doerksen,  A. D. Dutoi,  L. Fusti-Molnar,  W. A. Goddard III,  
 A. Golubeva-Zadorozhnaya,  S. R. Gwaltney,  G. Hawkins,  A. Heyden,  
 S. Hirata,  G. Kedziora,  F. J. Keil,  C. Kelley,  Jihan Kim,  R. A. King,  
 R. Z. Khaliullin,  P. P. Korambath,  W. Kurlancheek,  A. M. Lee,  M. S. Lee,  
 S. V. Levchenko,  Ching Yeh Lin,  D. Liotard,  R. C. Lochan,  I. Lotan,  
 P. E. Maslen,  N. Nair,  D. P. O'Neill,  D. Neuhauser,  E. Neuscamman,  
 C. M. Oana,  R. Olson,  B. Peters,  R. Peverati,  P. A. Pieniazek,  
 Y. M. Rhee,  J. Ritchie,  M. A. Rohrdanz,  E. Rosta,  N. J. Russ,  
 H. F. Schaefer III,  N. E. Schultz,  N. Shenvi,  A. C. Simmonett,  A. Sodt,  
 D. Stuck,  K. S. Thanthiriwatte,  V. Vanovschi,  Tao Wang,  A. Warshel,  
 C. F. Williams,  Q. Wu,  X. Xu,  W. Zhang

 Please cite Q-Chem as follows:
 Y. Shao et al., Mol. Phys. 113, 184-215 (2015)
 DOI: 10.1080/00268976.2014.952696

 Q-Chem 5.1.2 for Intel X86 EM64T Linux

 Parts of Q-Chem use Armadillo 8.300.2 (Tropical Shenanigans).
 http://arma.sourceforge.net/

 Q-Chem begins on Wed Jul  3 20:11:43 2019  

Host: 
0

     Scratch files written to /scratch/xuedong/qchem17751//
 Dec218 |scratch|qcdevops|jenkins|workspace|build_RNUM 6581   
Processing $rem in /home/qwang/software/qchem5.1.2/config/preferences.
 MEM_TOTAL  4000 
Core orbitals will be frozen
Input Ideriv = 1
Curr. Ideriv = -1
Max.  Ideriv = 1

Checking the input file for inconsistencies... 	...done.

--------------------------------------------------------------
User input:
--------------------------------------------------------------

$molecule
0 1
@Si     1.924810978     0.221250999     0.126279543
@H      1.412655312     0.307098559     1.517792385
@H      1.133853934    -0.817922695    -0.568974842
@H      1.726171862     1.539629336    -0.510559482
@N      3.598001176    -0.193061537    -0.046238154
@H      3.898337608    -1.114121400     0.229631138
@H      4.290301474     0.485203856     0.228290528
Si    -1.937229639    -0.350261466    -0.200868537
H     -1.704421617    -0.792966134    -1.599148532
H     -1.512561089    -1.446672224     0.694416556
H     -1.109294504     0.854175555     0.026858776
N     -3.571216783     0.057652131     0.206070237
H     -4.253899340    -0.682059868     0.247063967
H     -3.982245153     0.872798977    -0.220004283
$end

$rem
BASIS = aug-cc-pVTZ
JOB_TYPE  =  SP
METHOD  =  MP2
SCF_MAX_CYCLES  =  200
$end

--------------------------------------------------------------
 ----------------------------------------------------------------
             Standard Nuclear Orientation (Angstroms)
    I     Atom           X                Y                Z
 ----------------------------------------------------------------
    1      GH      1.9248109780     0.2212509990     0.1262795430
    2      GH      1.4126553120     0.3070985590     1.5177923850
    3      GH      1.1338539340    -0.8179226950    -0.5689748420
    4      GH      1.7261718620     1.5396293360    -0.5105594820
    5      GH      3.5980011760    -0.1930615370    -0.0462381540
    6      GH      3.8983376080    -1.1141214000     0.2296311380
    7      GH      4.2903014740     0.4852038560     0.2282905280
    8      Si     -1.9372296390    -0.3502614660    -0.2008685370
    9      H      -1.7044216170    -0.7929661340    -1.5991485320
   10      H      -1.5125610890    -1.4466722240     0.6944165560
   11      H      -1.1092945040     0.8541755550     0.0268587760
   12      N      -3.5712167830     0.0576521310     0.2060702370
   13      H      -4.2538993400    -0.6820598680     0.2470639670
   14      H      -3.9822451530     0.8727989770    -0.2200042830
 ----------------------------------------------------------------
 Nuclear Repulsion Energy =    64.7115287255 hartrees
 There are       13 alpha and       13 beta electrons
 Requested basis set is aug-cc-pVTZ
 There are 150 shells and 422 basis functions

 Total QAlloc Memory Limit   4000 MB
 Mega-Array Size       188 MB
 MEM_STATIC part       192 MB

                       Distance Matrix (Angstroms)
             GH(  1)   GH(  2)   GH(  3)   GH(  4)   GH(  5)   GH(  6)
   GH(  2)  1.485255
   GH(  3)  1.479484  2.387048
   GH(  4)  1.477546  2.394084  2.431523
   GH(  5)  1.732334  2.733512  2.595328  2.592597
   GH(  6)  2.385101  3.139720  2.892728  3.508358  1.007302
   GH(  7)  2.382357  3.158383  3.506698  2.869229  1.007318  1.646657
   Si(  8)  3.917781  3.821995  3.128221  4.133776  5.539621  5.901073
   H (  9)  4.144523  4.543306  3.019551  4.288939  5.557617  5.902414
   H ( 10)  3.862677  3.508639  2.999166  4.567204  5.313940  5.440996
   H ( 11)  3.101012  2.980337  2.860532  2.966232  4.822933  5.384393
   N ( 12)  5.499041  5.159634  4.848197  5.547264  7.178036  7.560942
   H ( 13)  6.245560  5.890927  5.450896  6.424262  7.872578  8.163697
   H ( 14)  5.952961  5.696043  5.399518  5.754573  7.656787  8.139632
             GH(  7)   Si(  8)   H (  9)   H ( 10)   H ( 11)   N ( 12)
   Si(  8)  6.297962
   H (  9)  6.396089  1.485050
   H ( 10)  6.133729  1.477835  2.392610
   H ( 11)  5.415935  1.479191  2.389802  2.429436
   N ( 12)  7.873167  1.732601  2.732634  2.596062  2.593767
   H ( 13)  8.623585  2.382791  3.149704  2.880919  3.506715  1.007427
   H ( 14)  8.293746  2.382925  3.140906  3.509338  2.883597  1.007446
             H ( 13)
   H ( 14)  1.646066
 
 A cutoff of  1.0D-08 yielded   9241 shell pairs
 There are     70365 function pairs (     89881 Cartesian)
 
 -------------------------------------------------------
 OpenMP Integral Computing Module                       
 Release: version 1.0, May 2013, Q-Chem Inc. Pittsburgh 
 -------------------------------------------------------
 Integral Job Info:
 Integral job number is                      11
 Integral operator is                         1
 short-range coefficients                     0
 long-range coefficients              100000000
 Omega coefficients                           0
 if combine SR and LR in K                    0
 Integral screening is                        0
 Integral computing path is                   2
 max size of driver memory is            800000
 size of driver memory is                776718
 size of scratch memory is             29531563
 max col of scratch BK array              10000
 max len of scratch array in speh3          662
 max len of scratch index in speh4           32
 max int batch size is                      520
 min int batch size is                       52
 fixed nKL is                                31
 max L of basis functions is                  3
 order of int derivative is                   0
 number of shells is                        150
 number of basis is                         478
 number of cartesian basis is               478
 number of contracted shell pairs          9241
 number of primitive shell pairs          27107
 maxK2 (contraction) of shell pair          169
 max number of K2 of shell pair               1
 max number of CS2 of shell pair           1682
 max number of PS2 of shell pair           2665
 mem total for path MDJ                  725420
 -------------------------------------------------------
 Smallest overlap matrix eigenvalue = 1.29E-05

 Q-Chem warning in module stvman/mkSTV.C, line 306:

 Overlap eigenvalue is smaller than square root of threshold
 Use THRESH >= 12 to get rid of this warning


 Scale SEOQF with 1.000000e-01/1.000000e-01/1.000000e-01

 Standard Electronic Orientation quadrupole field applied
 Nucleus-field energy     =     0.0000000065 hartrees
 Guess from superposition of atomic densities
 Warning:  Energy on first SCF cycle will be non-variational
 SAD guess density has 26.000000 electrons

 -----------------------------------------------------------------------
  General SCF calculation program by
  Eric Jon Sundstrom, Paul Horn, Yuezhi Mao, Dmitri Zuev, Alec White,
  David Stuck, Shaama M.S., Shane Yost, Joonho Lee, David Small,
  Daniel Levine, Susi Lehtola, Hugh Burton, Evgeny Epifanovsky
 -----------------------------------------------------------------------
 Hartree-Fock
 using 6 threads for integral computing
 -------------------------------------------------------
 OpenMP Integral computing Module                
 Release: version 1.0, May 2013, Q-Chem Inc. Pittsburgh 
 -------------------------------------------------------
 A restricted SCF calculation will be
 performed using DIIS
 SCF converges when DIIS error is below 1.0e-05
 ---------------------------------------
  Cycle       Energy         DIIS error
 ---------------------------------------
    1    -346.4442421770      1.19e-02  
    2    -346.3136280377      1.17e-03  
    3    -346.3442545461      5.50e-04  
    4    -346.3502360344      1.37e-04  
    5    -346.3508448835      1.81e-05  
    6    -346.3508619291      4.35e-06  Convergence criterion met
 ---------------------------------------
 SCF time:   CPU 341.16s  wall 57.00s 
 SCF   energy in the final basis set =     -346.3508619291
 Total energy in the final basis set =     -346.3508619291
 
 Components of the MP2 correlation energy:
        aaaa  correlation energy =        -0.0353266343 au
        abab  correlation energy =        -0.2892763553 au
        bbbb  correlation energy =        -0.0353266343 au
        non-Brillouin singles    =        -0.0000000000 au

 Total  MP2   correlation energy =                    -0.35992962 au
        MP2         total energy =                  -346.71079155 au
 
 --------------------------------------------------------------
 
                    Orbital Energies (a.u.)
 --------------------------------------------------------------
 
 Alpha MOs
 -- Occupied --
-68.778 -15.538  -6.125  -4.231  -4.231  -4.231  -1.137  -0.721
 -0.657  -0.554  -0.492  -0.475  -0.404
 -- Virtual --
  0.024   0.029   0.042   0.047   0.050   0.052   0.062   0.068
  0.068   0.074   0.076   0.086   0.089   0.092   0.102   0.106
  0.114   0.129   0.145   0.147   0.152   0.159   0.161   0.170
  0.172   0.177   0.178   0.186   0.192   0.207   0.209   0.216
  0.226   0.231   0.239   0.247   0.251   0.257   0.259   0.270
  0.281   0.291   0.295   0.306   0.309   0.313   0.323   0.329
  0.333   0.334   0.338   0.349   0.354   0.362   0.370   0.375
  0.377   0.380   0.385   0.389   0.398   0.403   0.409   0.417
  0.423   0.434   0.440   0.450   0.455   0.458   0.463   0.469
  0.471   0.481   0.485   0.494   0.500   0.504   0.511   0.535
  0.541   0.553   0.565   0.592   0.598   0.611   0.613   0.620
  0.639   0.644   0.647   0.651   0.667   0.671   0.682   0.687
  0.693   0.701   0.710   0.725   0.732   0.736   0.741   0.747
  0.756   0.762   0.772   0.778   0.796   0.804   0.813   0.824
  0.838   0.844   0.856   0.862   0.878   0.889   0.919   0.927
  0.933   0.941   0.942   0.962   0.967   0.976   0.989   1.000
  1.007   1.019   1.022   1.037   1.046   1.054   1.060   1.062
  1.070   1.079   1.080   1.087   1.104   1.105   1.117   1.124
  1.128   1.137   1.149   1.159   1.165   1.168   1.178   1.185
  1.187   1.196   1.199   1.207   1.221   1.228   1.234   1.246
  1.256   1.264   1.271   1.280   1.296   1.305   1.310   1.319
  1.330   1.334   1.349   1.352   1.357   1.368   1.377   1.388
  1.392   1.403   1.416   1.422   1.438   1.445   1.454   1.458
  1.465   1.475   1.492   1.501   1.509   1.522   1.536   1.551
  1.558   1.562   1.580   1.584   1.593   1.601   1.629   1.631
  1.634   1.666   1.677   1.686   1.705   1.717   1.739   1.747
  1.753   1.773   1.795   1.816   1.825   1.835   1.856   1.868
  1.894   1.912   1.917   1.938   1.961   1.971   1.978   1.991
  2.008   2.039   2.045   2.049   2.069   2.077   2.100   2.109
  2.132   2.161   2.169   2.178   2.215   2.222   2.231   2.252
  2.258   2.279   2.306   2.331   2.345   2.354   2.370   2.387
  2.417   2.436   2.440   2.461   2.485   2.511   2.520   2.541
  2.565   2.627   2.686   2.707   2.711   2.822   2.844   2.853
  2.870   2.912   2.974   3.013   3.084   3.129   3.140   3.152
  3.219   3.264   3.447   3.551   3.632   3.714   3.721   3.749
  3.758   3.793   3.836   3.999   4.012   4.063   4.079   4.099
  4.115   4.142   4.162   4.172   4.188   4.194   4.231   4.247
  4.258   4.273   4.283   4.294   4.302   4.317   4.340   4.367
  4.385   4.389   4.402   4.413   4.423   4.454   4.464   4.471
  4.498   4.509   4.519   4.530   4.543   4.564   4.567   4.582
  4.594   4.605   4.615   4.634   4.653   4.667   4.690   4.698
  4.709   4.724   4.757   4.769   4.796   4.806   4.817   4.830
  4.847   4.854   4.943   4.958   4.965   4.994   5.022   5.039
  5.042   5.096   5.107   5.122   5.135   5.145   5.171   5.178
  5.197   5.204   5.220   5.274   5.308   5.320   5.337   5.350
  5.353   5.380   5.402   5.431   5.453   5.486   5.521   5.584
  5.594   5.757   5.770   5.911   5.963   5.979   6.041   6.051
  6.096   6.161   6.185   6.194   6.212   6.247   6.373   6.494
  6.626   6.632   6.646   6.738   6.836   7.431   7.501   7.520
  7.611   7.757   7.821   8.111   9.064   9.294   9.364  10.115
 10.960  11.985  15.048  16.322  20.361  20.478  21.163  56.899
107.018
 --------------------------------------------------------------
 
          Ground-State Mulliken Net Atomic Charges

     Atom                 Charge (a.u.)
  ----------------------------------------
      1 GH                    0.035699
      2 GH                   -0.003082
      3 GH                    0.001012
      4 GH                    0.001838
      5 GH                   -0.006362
      6 GH                   -0.000477
      7 GH                    0.000046
      8 Si                    1.135677
      9 H                    -0.310908
     10 H                    -0.260532
     11 H                    -0.219326
     12 N                    -0.621860
     13 H                     0.116565
     14 H                     0.131710
  ----------------------------------------
  Sum of atomic charges =     0.000000

 -----------------------------------------------------------------
                    Cartesian Multipole Moments
 -----------------------------------------------------------------
    Charge (ESU x 10^10)
                 0.0000
    Dipole Moment (Debye)
         X      -1.0491      Y      -0.0345      Z      -0.6845
       Tot       1.2531
    Quadrupole Moments (Debye-Ang)
        XX     -14.8714     XY       0.4766     YY     -21.2039
        XZ       2.8082     YZ      -1.1069     ZZ     -24.3066
    Octopole Moments (Debye-Ang^2)
       XXX     119.3839    XXY       1.6161    XYY      46.5966
       YYY      16.7416    XXZ      -8.5460    XYZ       4.1749
       YYZ       1.4004    XZZ      59.1294    YZZ       6.4405
       ZZZ       7.5470
    Hexadecapole Moments (Debye-Ang^3)
      XXXX    -690.1326   XXXY      -8.7619   XXYY    -129.9920
      XYYY     -29.5658   YYYY     -64.0422   XXXZ      32.0908
      XXYZ     -16.9205   XYYZ       0.1163   YYYZ      -3.5743
      XXZZ    -178.0612   XYZZ     -10.9337   YYZZ     -21.1180
      XZZZ      -5.6019   YZZZ      -5.5293   ZZZZ     -60.0032
 -----------------------------------------------------------------
Archival summary:
1\1\gm4.localdomain\SP\MP2\BasisUnspecified\i115h7\xuedong\WedJul320:15:212019WedJul320:15:212019\0\\#,MP2,BasisUnspecified,\\0,1\Si\H,1,1.47783\H,1,1.47919,2,110.487\H,1,1.48505,2,107.71,3,117.093,0\N,1,1.7326,2,107.661,3,-117.069,0\H,5,1.00743,1,118.409,2,-51.7377,0\H,5,1.00745,1,118.42,2,171.747,0\Gh,3,2.86053,1,86.0369,2,57.0246,0\Gh,8,1.47948,3,84.8808,1,-160.622,0\Gh,9,1.47755,8,110.628,3,-57.1395,0\Gh,9,1.48525,8,107.249,3,60.1896,0\Gh,9,1.73233,8,107.552,3,-174.246,0\Gh,12,1.0073,9,118.646,8,-53.4135,0\Gh,12,1.00732,9,118.4,8,169.635,0\\HF=-346.350862\MP2=-346.710792\\@

 Total job time:  217.78s(wall), 1298.44s(cpu) 
 Wed Jul  3 20:15:21 2019

        *************************************************************
        *                                                           *
        *  Thank you very much for using Q-Chem.  Have a nice day.  *
        *                                                           *
        *************************************************************


