
Running Job 1 of 3 ../qm_inp/SiH3NH2_SiH3NH2_con2.120.qcinp
qchem ../qm_inp/SiH3NH2_SiH3NH2_con2.120.qcinp_38916.0 /scratch/xuedong/qchem38916/ 1
/home/qwang/software/qchem5.1.2/exe/qcprog.exe_s ../qm_inp/SiH3NH2_SiH3NH2_con2.120.qcinp_38916.0 /scratch/xuedong/qchem38916/
Check license passed

                  Welcome to Q-Chem
     A Quantum Leap Into The Future Of Chemistry


 Q-Chem 5.1, Q-Chem, Inc., Pleasanton, CA (2018)

 Yihan Shao,  Zhengting Gan,  E. Epifanovsky,  A. T. B. Gilbert,  M. Wormit,  
 J. Kussmann,  A. W. Lange,  A. Behn,  Jia Deng,  Xintian Feng,  D. Ghosh,  
 M. Goldey,  P. R. Horn,  L. D. Jacobson,  I. Kaliman,  T. Kus,  A. Landau,  
 Jie Liu,  E. I. Proynov,  R. M. Richard,  R. P. Steele,  E. J. Sundstrom,  
 H. L. Woodcock III,  P. M. Zimmerman,  D. Zuev,  B. Albrecht,  E. Alguire,  
 S. A. Baeppler,  D. Barton,  Z. Benda,  Y. A. Bernard,  E. J. Berquist,  
 K. B. Bravaya,  H. Burton,  D. Casanova,  Chun-Min Chang,  Yunqing Chen,  
 A. Chien,  K. D. Closser,  M. P. Coons,  S. Coriani,  S. Dasgupta,  
 A. L. Dempwolff,  M. Diedenhofen,  Hainam Do,  R. G. Edgar,  Po-Tung Fang,  
 S. Faraji,  S. Fatehi,  Qingguo Feng,  K. D. Fenk,  J. Fosso-Tande,  
 J. Gayvert,  Qinghui Ge,  A. Ghysels,  G. Gidofalvi,  J. Gomes,  
 J. Gonthier,  A. Gunina,  D. Hait,  M. W. D. Hanson-Heine,  
 P. H. P. Harbach,  A. W. Hauser,  J. E. Herr,  E. G. Hohenstein,  
 Z. C. Holden,  Kerwin Hui,  B. C. Huynh,  T.-C. Jagau,  Hyunjun Ji,  
 B. Kaduk,  K. Khistyaev,  Jaehoon Kim,  P. Klunzinger,  K. Koh,  
 D. Kosenkov,  L. Koulias,  T. Kowalczyk,  C. M. Krauter,  A. Kunitsa,  
 Ka Un Lao,  A. Laurent,  K. V. Lawler,  Joonho Lee,  D. Lefrancois,  
 S. Lehtola,  D. S. Levine,  Yi-Pei Li,  You-Sheng Lin,  Fenglai Liu,  
 E. Livshits,  A. Luenser,  P. Manohar,  E. Mansoor,  S. F. Manzer,  
 Shan-Ping Mao,  Yuezhi Mao,  N. Mardirossian,  A. V. Marenich,  
 T. Markovich,  L. A. Martinez-Martinez,  S. A. Maurer,  N. J. Mayhall,  
 S. C. McKenzie,  J.-M. Mewes,  A. F. Morrison,  J. W. Mullinax,  K. Nanda,  
 T. S. Nguyen-Beck,  R. Olivares-Amaya,  J. A. Parkhill,  T. M. Perrine,  
 F. Plasser,  P. Pokhilko,  S. Prager,  A. Prociuk,  E. Ramos,  D. R. Rehn,  
 F. Rob,  M. Schneider,  N. Sergueev,  S. M. Sharada,  S. Sharma,  
 D. W. Small,  T. Stauch,  T. Stein,  Yu-Chuan Su,  A. J. W. Thom,  
 A. Tkatchenko,  T. Tsuchimochi,  N. M. Tubman,  L. Vogt,  M. L. Vidal,  
 O. Vydrov,  M. A. Watson,  J. Wenzel,  M. de Wergifosse,  T. A. Wesolowski,  
 A. White,  J. Witte,  A. Yamada,  Jun Yang,  K. Yao,  S. Yeganeh,  
 S. R. Yost,  Zhi-Qiang You,  A. Zech,  Igor Ying Zhang,  Xing Zhang,  
 Yan Zhao,  Ying Zhu,  B. R. Brooks,  G. K. L. Chan,  C. J. Cramer,  
 M. S. Gordon,  W. J. Hehre,  A. Klamt,  M. W. Schmidt,  C. D. Sherrill,  
 D. G. Truhlar,  A. Aspuru-Guzik,  R. Baer,  A. T. Bell,  N. A. Besley,  
 Jeng-Da Chai,  A. E. DePrince, III,  R. A. DiStasio Jr.,  A. Dreuw,  
 B. D. Dunietz,  T. R. Furlani,  Chao-Ping Hsu,  Yousung Jung,  Jing Kong,  
 D. S. Lambrecht,  WanZhen Liang,  C. Ochsenfeld,  V. A. Rassolov,  
 L. V. Slipchenko,  J. E. Subotnik,  T. Van Voorhis,  J. M. Herbert,  
 A. I. Krylov,  P. M. W. Gill,  M. Head-Gordon

 Contributors to earlier versions of Q-Chem not listed above: 
 R. D. Adamson,  B. Austin,  J. Baker,  G. J. O. Beran,  K. Brandhorst,  
 S. T. Brown,  E. F. C. Byrd,  A. K. Chakraborty,  C.-L. Cheng,  
 Siu Hung Chien,  D. M. Chipman,  D. L. Crittenden,  H. Dachsel,  
 R. J. Doerksen,  A. D. Dutoi,  L. Fusti-Molnar,  W. A. Goddard III,  
 A. Golubeva-Zadorozhnaya,  S. R. Gwaltney,  G. Hawkins,  A. Heyden,  
 S. Hirata,  G. Kedziora,  F. J. Keil,  C. Kelley,  Jihan Kim,  R. A. King,  
 R. Z. Khaliullin,  P. P. Korambath,  W. Kurlancheek,  A. M. Lee,  M. S. Lee,  
 S. V. Levchenko,  Ching Yeh Lin,  D. Liotard,  R. C. Lochan,  I. Lotan,  
 P. E. Maslen,  N. Nair,  D. P. O'Neill,  D. Neuhauser,  E. Neuscamman,  
 C. M. Oana,  R. Olson,  B. Peters,  R. Peverati,  P. A. Pieniazek,  
 Y. M. Rhee,  J. Ritchie,  M. A. Rohrdanz,  E. Rosta,  N. J. Russ,  
 H. F. Schaefer III,  N. E. Schultz,  N. Shenvi,  A. C. Simmonett,  A. Sodt,  
 D. Stuck,  K. S. Thanthiriwatte,  V. Vanovschi,  Tao Wang,  A. Warshel,  
 C. F. Williams,  Q. Wu,  X. Xu,  W. Zhang

 Please cite Q-Chem as follows:
 Y. Shao et al., Mol. Phys. 113, 184-215 (2015)
 DOI: 10.1080/00268976.2014.952696

 Q-Chem 5.1.2 for Intel X86 EM64T Linux

 Parts of Q-Chem use Armadillo 8.300.2 (Tropical Shenanigans).
 http://arma.sourceforge.net/

 Q-Chem begins on Thu Jul  4 10:31:46 2019  

Host: 
0

     Scratch files written to /scratch/xuedong/qchem38916//
 Dec218 |scratch|qcdevops|jenkins|workspace|build_RNUM 6581   
Processing $rem in /home/qwang/software/qchem5.1.2/config/preferences.
 MEM_TOTAL  4000 
Core orbitals will be frozen
Input Ideriv = 1
Curr. Ideriv = -1
Max.  Ideriv = 1

Checking the input file for inconsistencies... 	...done.

--------------------------------------------------------------
User input:
--------------------------------------------------------------
$molecule
0 1
Si     2.701607000     0.125690888    -0.270400178
H     3.881940247    -0.764955877    -0.394351651
H     3.074781685     1.254572160     0.606696963
H     2.345683281     0.606987292    -1.620593772
N     1.274958878    -0.611037074     0.407064268
H     1.327705539    -0.932294968     1.362965471
H     0.821958737    -1.325136373    -0.145472211
Si    -3.098870822     0.001797803    -0.233582709
H    -3.142895402     0.700356605    -1.545871295
H    -4.488625287    -0.056877640     0.270543024
H    -2.596248680    -1.368366627    -0.489951445
N    -2.087743996     0.695777173     0.981652660
H    -2.313097983     1.611517498     1.335047705
H    -1.088652377     0.597258806     0.845011860
$end

$rem
BASIS = aug-cc-pVTZ
JOB_TYPE  =  SP
METHOD  =  MP2
SCF_MAX_CYCLES  =  200
$end

--------------------------------------------------------------
 ----------------------------------------------------------------
             Standard Nuclear Orientation (Angstroms)
    I     Atom           X                Y                Z
 ----------------------------------------------------------------
    1      Si     -2.9638981039    -0.0959664394     0.2801813631
    2      H      -4.1817136869    -0.6048278287    -0.3978949556
    3      H      -3.2631049904     1.2554912007     0.7968719404
    4      H      -2.6345549818    -1.0182572665     1.3857415839
    5      N      -1.5454535105     0.0323759157    -0.7241065462
    6      H      -1.5788816791     0.6856865973    -1.4933943112
    7      H      -1.1394543122    -0.8311484925    -1.0556691265
    8      Si      2.8252683665    -0.4116464991     0.0607601619
    9      H       2.8529054345    -1.1739806075     1.3375165193
   10      H       4.2276757386    -0.0790151852    -0.2733251670
   11      H       2.2610567625    -1.3146908371    -0.9697157966
   12      N       1.8831686035     1.0350145044     0.0407151165
   13      H       2.1558964546     1.7995255349     0.6368654527
   14      H       0.8769859325     0.9160650830     0.0435625185
 ----------------------------------------------------------------
 Molecular Point Group                 C1    NOp =  1
 Largest Abelian Subgroup              C1    NOp =  1
 Nuclear Repulsion Energy =   201.1558914056 hartrees
 There are       26 alpha and       26 beta electrons
 Requested basis set is aug-cc-pVTZ
 There are 150 shells and 422 basis functions

 Total QAlloc Memory Limit   4000 MB
 Mega-Array Size       188 MB
 MEM_STATIC part       192 MB

                       Distance Matrix (Angstroms)
             Si(  1)   H (  2)   H (  3)   H (  4)   N (  5)   H (  6)
   H (  2)  1.483847
   H (  3)  1.477475  2.394180
   H (  4)  1.476940  2.397078  2.431414
   N (  5)  1.742714  2.731723  2.599945  2.596427
   H (  6)  2.382189  3.104880  2.899415  3.508175  1.009820
   H (  7)  2.377727  3.120774  3.506546  2.868941  1.010170  1.638746
   Si(  8)  5.801918  7.024634  6.355273  5.650949  4.462777  4.797507
   H (  9)  6.009599  7.267837  6.603046  5.489881  5.005112  5.577917
   H ( 10)  7.212863  8.426733  7.683621  7.122141  5.791773  5.982428
   H ( 11)  5.508873  6.506933  6.343740  5.440870  4.045298  4.361293
   N ( 12)  4.983023  6.297957  5.206200  5.141483  3.653175  3.802803
   H ( 13)  5.471052  6.856890  5.448592  5.607953  4.321464  4.441533
   H ( 14)  3.979018  5.300796  4.221734  4.227761  2.690434  2.906303
             H (  7)   Si(  8)   H (  9)   H ( 10)   H ( 11)   N ( 12)
   Si(  8)  4.140220
   H (  9)  4.667313  1.487287
   H ( 10)  5.475751  1.479528  2.384062
   H ( 11)  3.435793  1.481791  2.386086  2.424757
   N ( 12)  3.717643  1.726494  2.738931  2.614650  2.585515
   H ( 13)  4.543617  2.381016  3.133444  2.941026  3.505782  1.007101
   H ( 14)  2.885671  2.357736  3.153865  3.509662  2.814011  1.013193
             H ( 13)
   H ( 14)  1.663768
 
 A cutoff of  1.0D-08 yielded   9388 shell pairs
 There are     72478 function pairs (     92966 Cartesian)
 
 -------------------------------------------------------
 OpenMP Integral Computing Module                       
 Release: version 1.0, May 2013, Q-Chem Inc. Pittsburgh 
 -------------------------------------------------------
 Integral Job Info:
 Integral job number is                      11
 Integral operator is                         1
 short-range coefficients                     0
 long-range coefficients              100000000
 Omega coefficients                           0
 if combine SR and LR in K                    0
 Integral screening is                        0
 Integral computing path is                   2
 max size of driver memory is            800000
 size of driver memory is                776718
 size of scratch memory is             29531563
 max col of scratch BK array              10000
 max len of scratch array in speh3          662
 max len of scratch index in speh4           32
 max int batch size is                      520
 min int batch size is                       52
 fixed nKL is                                31
 max L of basis functions is                  3
 order of int derivative is                   0
 number of shells is                        150
 number of basis is                         478
 number of cartesian basis is               478
 number of contracted shell pairs          9388
 number of primitive shell pairs          26770
 maxK2 (contraction) of shell pair          169
 max number of K2 of shell pair               1
 max number of CS2 of shell pair           1704
 max number of PS2 of shell pair           2522
 mem total for path MDJ                  731868
 -------------------------------------------------------
 Smallest overlap matrix eigenvalue = 1.72E-05

 Q-Chem warning in module stvman/mkSTV.C, line 306:

 Overlap eigenvalue is smaller than square root of threshold
 Use THRESH >= 12 to get rid of this warning


 Scale SEOQF with 1.000000e-01/1.000000e-01/1.000000e-01

 Standard Electronic Orientation quadrupole field applied
 Nucleus-field energy     =     0.0000000126 hartrees
 Guess from superposition of atomic densities
 Warning:  Energy on first SCF cycle will be non-variational
 SAD guess density has 52.000000 electrons

 -----------------------------------------------------------------------
  General SCF calculation program by
  Eric Jon Sundstrom, Paul Horn, Yuezhi Mao, Dmitri Zuev, Alec White,
  David Stuck, Shaama M.S., Shane Yost, Joonho Lee, David Small,
  Daniel Levine, Susi Lehtola, Hugh Burton, Evgeny Epifanovsky
 -----------------------------------------------------------------------
 Hartree-Fock
 using 6 threads for integral computing
 -------------------------------------------------------
 OpenMP Integral computing Module                
 Release: version 1.0, May 2013, Q-Chem Inc. Pittsburgh 
 -------------------------------------------------------
 A restricted SCF calculation will be
 performed using DIIS
 SCF converges when DIIS error is below 1.0e-05
 ---------------------------------------
  Cycle       Energy         DIIS error
 ---------------------------------------
    1    -692.8875043081      1.68e-02  
    2    -692.6307148860      1.64e-03  
    3    -692.6911133326      7.53e-04  
    4    -692.7024458425      1.95e-04  
    5    -692.7036604389      2.48e-05  
    6    -692.7036932658      6.07e-06  Convergence criterion met
 ---------------------------------------
 SCF time:   CPU 361.61s  wall 60.00s 
 SCF   energy in the final basis set =     -692.7036932658
 Total energy in the final basis set =     -692.7036932658
 
 Components of the MP2 correlation energy:
        aaaa  correlation energy =        -0.0712067246 au
        abab  correlation energy =        -0.5796661164 au
        bbbb  correlation energy =        -0.0712067246 au
        non-Brillouin singles    =        -0.0000000000 au

 Total  MP2   correlation energy =                    -0.72207957 au
        MP2         total energy =                  -693.42577283 au
 
 --------------------------------------------------------------
 
                    Orbital Energies (a.u.)
 --------------------------------------------------------------
 
 Alpha MOs
 -- Occupied --
-68.786 -68.773 -15.547 -15.530  -6.132  -6.120  -4.238  -4.238
 -4.238  -4.226  -4.226  -4.226  -1.145  -1.128  -0.727  -0.714
 -0.661  -0.650  -0.560  -0.547  -0.499  -0.486  -0.483  -0.471
 -0.414  -0.397
 -- Virtual --
  0.026   0.038   0.040   0.041   0.052   0.057   0.060   0.062
  0.070   0.073   0.077   0.080   0.084   0.093   0.099   0.106
  0.133   0.137   0.146   0.147   0.150   0.156   0.160   0.163
  0.168   0.175   0.180   0.191   0.192   0.198   0.205   0.205
  0.211   0.217   0.229   0.233   0.244   0.249   0.252   0.262
  0.266   0.274   0.278   0.290   0.300   0.305   0.309   0.316
  0.319   0.329   0.331   0.338   0.347   0.348   0.356   0.365
  0.374   0.375   0.380   0.385   0.389   0.396   0.400   0.404
  0.410   0.420   0.423   0.433   0.447   0.448   0.457   0.463
  0.470   0.480   0.488   0.500   0.501   0.515   0.521   0.527
  0.532   0.539   0.550   0.553   0.565   0.578   0.587   0.594
  0.604   0.608   0.623   0.628   0.636   0.642   0.652   0.655
  0.656   0.662   0.671   0.673   0.679   0.681   0.685   0.696
  0.706   0.715   0.728   0.735   0.752   0.760   0.770   0.786
  0.796   0.813   0.824   0.852   0.859   0.869   0.904   0.913
  0.922   0.933   0.934   0.942   0.953   0.963   0.966   0.970
  0.975   0.980   0.984   0.990   0.998   1.009   1.013   1.021
  1.026   1.036   1.054   1.054   1.062   1.077   1.088   1.095
  1.111   1.121   1.122   1.129   1.131   1.139   1.153   1.166
  1.171   1.174   1.180   1.184   1.196   1.199   1.207   1.212
  1.216   1.226   1.227   1.238   1.253   1.269   1.277   1.284
  1.294   1.298   1.301   1.311   1.320   1.321   1.336   1.344
  1.350   1.358   1.366   1.375   1.378   1.389   1.397   1.399
  1.405   1.413   1.423   1.428   1.436   1.448   1.452   1.455
  1.461   1.484   1.490   1.493   1.504   1.518   1.524   1.536
  1.549   1.558   1.578   1.593   1.609   1.628   1.649   1.655
  1.680   1.700   1.715   1.728   1.767   1.788   1.800   1.817
  1.833   1.844   1.860   1.884   1.899   1.911   1.942   1.944
  1.973   1.986   1.992   2.017   2.037   2.038   2.059   2.068
  2.092   2.112   2.128   2.132   2.141   2.158   2.192   2.201
  2.218   2.226   2.237   2.240   2.242   2.254   2.272   2.284
  2.300   2.344   2.348   2.385   2.408   2.430   2.443   2.459
  2.473   2.495   2.530   2.559   2.589   2.706   2.716   2.748
  2.935   2.988   3.127   3.146   3.178   3.194   3.372   3.388
  3.607   3.639   3.674   3.696   3.701   3.705   3.753   3.781
  3.799   3.824   3.983   3.988   3.997   4.000   4.020   4.025
  4.040   4.062   4.082   4.091   4.102   4.116   4.124   4.131
  4.141   4.146   4.163   4.172   4.176   4.183   4.192   4.200
  4.240   4.253   4.256   4.266   4.276   4.301   4.307   4.316
  4.326   4.348   4.362   4.371   4.391   4.416   4.484   4.490
  4.492   4.502   4.513   4.528   4.540   4.543   4.559   4.565
  4.575   4.586   4.603   4.633   4.648   4.664   4.677   4.723
  4.742   4.747   4.770   4.773   4.796   4.799   4.813   4.822
  4.832   4.833   4.854   4.865   4.888   4.951   4.971   4.980
  5.031   5.056   5.086   5.100   5.107   5.140   5.152   5.171
  5.181   5.195   5.252   5.287   5.316   5.328   5.335   5.370
  5.419   5.468   5.546   5.567   5.584   5.633   5.877   5.946
  5.980   5.994   6.059   6.068   6.159   6.188   6.205   6.234
  6.509   6.532   6.624   6.636   6.757   6.837   7.763   7.785
  8.815   8.914  16.490  16.824
 --------------------------------------------------------------
 
          Ground-State Mulliken Net Atomic Charges

     Atom                 Charge (a.u.)
  ----------------------------------------
      1 Si                    0.988835
      2 H                    -0.334568
      3 H                    -0.283527
      4 H                    -0.271352
      5 N                    -0.317982
      6 H                     0.106384
      7 H                     0.111237
      8 Si                    1.102251
      9 H                    -0.354742
     10 H                    -0.310409
     11 H                    -0.304159
     12 N                    -0.512854
     13 H                     0.108976
     14 H                     0.271910
  ----------------------------------------
  Sum of atomic charges =    -0.000000

 -----------------------------------------------------------------
                    Cartesian Multipole Moments
 -----------------------------------------------------------------
    Charge (ESU x 10^10)
                -0.0000
    Dipole Moment (Debye)
         X      -1.0927      Y       0.2370      Z      -0.3015
       Tot       1.1580
    Quadrupole Moments (Debye-Ang)
        XX     -48.3100     XY       0.7106     YY     -43.2016
        XZ       3.3660     YZ       1.9890     ZZ     -43.7453
    Octopole Moments (Debye-Ang^2)
       XXX      -0.6554    XXY       7.5209    XYY       1.4942
       YYY       7.5664    XXZ       4.2951    XYZ       7.9473
       YYZ      -0.4668    XZZ      -4.5528    YZZ       5.3447
       ZZZ      -7.9998
    Hexadecapole Moments (Debye-Ang^3)
      XXXX   -2046.8292   XXXY       6.3459   XXYY    -349.3169
      XYYY      19.5655   YYYY    -159.7146   XXXZ       6.1099
      XXYZ       8.3306   XYYZ      16.8047   YYYZ       9.7958
      XXZZ    -347.1946   XYZZ       4.2065   YYZZ     -49.7975
      XZZZ      11.0957   YZZZ       1.4585   ZZZZ    -130.1122
 -----------------------------------------------------------------
Archival summary:
1\1\gm4.localdomain\SP\MP2\BasisUnspecified\i2210\xuedong\ThuJul410:38:392019ThuJul410:38:392019\0\\#,MP2,BasisUnspecified,\\0,1\Si\H,1,1.47953\H,1,1.48179,2,109.932\H,1,1.48729,2,106.946,3,115.775,0\N,1,1.72649,2,109.04,3,-117.186,0\H,5,1.0071,1,118.779,2,-57.0413,0\H,5,1.01319,1,116.327,2,166.451,0\N,7,2.69043,5,158.736,1,-53.3816,0\H,8,1.00982,7,91.9872,5,-77.6476,0\H,8,1.01017,7,90.7191,5,30.831,0\Si,8,1.74271,7,126.343,5,155.726,0\H,11,1.47694,8,107.209,7,-60.0109,0\H,11,1.47747,8,107.397,7,59.0699,0\H,11,1.48385,8,115.462,7,179.458,0\\HF=-692.703693\MP2=-693.425773\\@

 Total job time:  412.42s(wall), 2442.39s(cpu) 
 Thu Jul  4 10:38:39 2019

        *************************************************************
        *                                                           *
        *  Thank you very much for using Q-Chem.  Have a nice day.  *
        *                                                           *
        *************************************************************



Running Job 2 of 3 ../qm_inp/SiH3NH2_SiH3NH2_con2.120.qcinp
qchem ../qm_inp/SiH3NH2_SiH3NH2_con2.120.qcinp_38916.1 /scratch/xuedong/qchem38916/ 1
/home/qwang/software/qchem5.1.2/exe/qcprog.exe_s ../qm_inp/SiH3NH2_SiH3NH2_con2.120.qcinp_38916.1 /scratch/xuedong/qchem38916/
Check license passed

                  Welcome to Q-Chem
     A Quantum Leap Into The Future Of Chemistry


 Q-Chem 5.1, Q-Chem, Inc., Pleasanton, CA (2018)

 Yihan Shao,  Zhengting Gan,  E. Epifanovsky,  A. T. B. Gilbert,  M. Wormit,  
 J. Kussmann,  A. W. Lange,  A. Behn,  Jia Deng,  Xintian Feng,  D. Ghosh,  
 M. Goldey,  P. R. Horn,  L. D. Jacobson,  I. Kaliman,  T. Kus,  A. Landau,  
 Jie Liu,  E. I. Proynov,  R. M. Richard,  R. P. Steele,  E. J. Sundstrom,  
 H. L. Woodcock III,  P. M. Zimmerman,  D. Zuev,  B. Albrecht,  E. Alguire,  
 S. A. Baeppler,  D. Barton,  Z. Benda,  Y. A. Bernard,  E. J. Berquist,  
 K. B. Bravaya,  H. Burton,  D. Casanova,  Chun-Min Chang,  Yunqing Chen,  
 A. Chien,  K. D. Closser,  M. P. Coons,  S. Coriani,  S. Dasgupta,  
 A. L. Dempwolff,  M. Diedenhofen,  Hainam Do,  R. G. Edgar,  Po-Tung Fang,  
 S. Faraji,  S. Fatehi,  Qingguo Feng,  K. D. Fenk,  J. Fosso-Tande,  
 J. Gayvert,  Qinghui Ge,  A. Ghysels,  G. Gidofalvi,  J. Gomes,  
 J. Gonthier,  A. Gunina,  D. Hait,  M. W. D. Hanson-Heine,  
 P. H. P. Harbach,  A. W. Hauser,  J. E. Herr,  E. G. Hohenstein,  
 Z. C. Holden,  Kerwin Hui,  B. C. Huynh,  T.-C. Jagau,  Hyunjun Ji,  
 B. Kaduk,  K. Khistyaev,  Jaehoon Kim,  P. Klunzinger,  K. Koh,  
 D. Kosenkov,  L. Koulias,  T. Kowalczyk,  C. M. Krauter,  A. Kunitsa,  
 Ka Un Lao,  A. Laurent,  K. V. Lawler,  Joonho Lee,  D. Lefrancois,  
 S. Lehtola,  D. S. Levine,  Yi-Pei Li,  You-Sheng Lin,  Fenglai Liu,  
 E. Livshits,  A. Luenser,  P. Manohar,  E. Mansoor,  S. F. Manzer,  
 Shan-Ping Mao,  Yuezhi Mao,  N. Mardirossian,  A. V. Marenich,  
 T. Markovich,  L. A. Martinez-Martinez,  S. A. Maurer,  N. J. Mayhall,  
 S. C. McKenzie,  J.-M. Mewes,  A. F. Morrison,  J. W. Mullinax,  K. Nanda,  
 T. S. Nguyen-Beck,  R. Olivares-Amaya,  J. A. Parkhill,  T. M. Perrine,  
 F. Plasser,  P. Pokhilko,  S. Prager,  A. Prociuk,  E. Ramos,  D. R. Rehn,  
 F. Rob,  M. Schneider,  N. Sergueev,  S. M. Sharada,  S. Sharma,  
 D. W. Small,  T. Stauch,  T. Stein,  Yu-Chuan Su,  A. J. W. Thom,  
 A. Tkatchenko,  T. Tsuchimochi,  N. M. Tubman,  L. Vogt,  M. L. Vidal,  
 O. Vydrov,  M. A. Watson,  J. Wenzel,  M. de Wergifosse,  T. A. Wesolowski,  
 A. White,  J. Witte,  A. Yamada,  Jun Yang,  K. Yao,  S. Yeganeh,  
 S. R. Yost,  Zhi-Qiang You,  A. Zech,  Igor Ying Zhang,  Xing Zhang,  
 Yan Zhao,  Ying Zhu,  B. R. Brooks,  G. K. L. Chan,  C. J. Cramer,  
 M. S. Gordon,  W. J. Hehre,  A. Klamt,  M. W. Schmidt,  C. D. Sherrill,  
 D. G. Truhlar,  A. Aspuru-Guzik,  R. Baer,  A. T. Bell,  N. A. Besley,  
 Jeng-Da Chai,  A. E. DePrince, III,  R. A. DiStasio Jr.,  A. Dreuw,  
 B. D. Dunietz,  T. R. Furlani,  Chao-Ping Hsu,  Yousung Jung,  Jing Kong,  
 D. S. Lambrecht,  WanZhen Liang,  C. Ochsenfeld,  V. A. Rassolov,  
 L. V. Slipchenko,  J. E. Subotnik,  T. Van Voorhis,  J. M. Herbert,  
 A. I. Krylov,  P. M. W. Gill,  M. Head-Gordon

 Contributors to earlier versions of Q-Chem not listed above: 
 R. D. Adamson,  B. Austin,  J. Baker,  G. J. O. Beran,  K. Brandhorst,  
 S. T. Brown,  E. F. C. Byrd,  A. K. Chakraborty,  C.-L. Cheng,  
 Siu Hung Chien,  D. M. Chipman,  D. L. Crittenden,  H. Dachsel,  
 R. J. Doerksen,  A. D. Dutoi,  L. Fusti-Molnar,  W. A. Goddard III,  
 A. Golubeva-Zadorozhnaya,  S. R. Gwaltney,  G. Hawkins,  A. Heyden,  
 S. Hirata,  G. Kedziora,  F. J. Keil,  C. Kelley,  Jihan Kim,  R. A. King,  
 R. Z. Khaliullin,  P. P. Korambath,  W. Kurlancheek,  A. M. Lee,  M. S. Lee,  
 S. V. Levchenko,  Ching Yeh Lin,  D. Liotard,  R. C. Lochan,  I. Lotan,  
 P. E. Maslen,  N. Nair,  D. P. O'Neill,  D. Neuhauser,  E. Neuscamman,  
 C. M. Oana,  R. Olson,  B. Peters,  R. Peverati,  P. A. Pieniazek,  
 Y. M. Rhee,  J. Ritchie,  M. A. Rohrdanz,  E. Rosta,  N. J. Russ,  
 H. F. Schaefer III,  N. E. Schultz,  N. Shenvi,  A. C. Simmonett,  A. Sodt,  
 D. Stuck,  K. S. Thanthiriwatte,  V. Vanovschi,  Tao Wang,  A. Warshel,  
 C. F. Williams,  Q. Wu,  X. Xu,  W. Zhang

 Please cite Q-Chem as follows:
 Y. Shao et al., Mol. Phys. 113, 184-215 (2015)
 DOI: 10.1080/00268976.2014.952696

 Q-Chem 5.1.2 for Intel X86 EM64T Linux

 Parts of Q-Chem use Armadillo 8.300.2 (Tropical Shenanigans).
 http://arma.sourceforge.net/

 Q-Chem begins on Thu Jul  4 10:38:39 2019  

Host: 
0

     Scratch files written to /scratch/xuedong/qchem38916//
 Dec218 |scratch|qcdevops|jenkins|workspace|build_RNUM 6581   
Processing $rem in /home/qwang/software/qchem5.1.2/config/preferences.
 MEM_TOTAL  4000 
Core orbitals will be frozen
Input Ideriv = 1
Curr. Ideriv = -1
Max.  Ideriv = 1

Checking the input file for inconsistencies... 	...done.

--------------------------------------------------------------
User input:
--------------------------------------------------------------

$molecule
0 1
Si     2.701607000     0.125690888    -0.270400178
H     3.881940247    -0.764955877    -0.394351651
H     3.074781685     1.254572160     0.606696963
H     2.345683281     0.606987292    -1.620593772
N     1.274958878    -0.611037074     0.407064268
H     1.327705539    -0.932294968     1.362965471
H     0.821958737    -1.325136373    -0.145472211
@Si   -3.098870822     0.001797803    -0.233582709
@H    -3.142895402     0.700356605    -1.545871295
@H    -4.488625287    -0.056877640     0.270543024
@H    -2.596248680    -1.368366627    -0.489951445
@N    -2.087743996     0.695777173     0.981652660
@H    -2.313097983     1.611517498     1.335047705
@H    -1.088652377     0.597258806     0.845011860
$end

$rem
BASIS = aug-cc-pVTZ
JOB_TYPE  =  SP
METHOD  =  MP2
SCF_MAX_CYCLES  =  200
$end

--------------------------------------------------------------
 ----------------------------------------------------------------
             Standard Nuclear Orientation (Angstroms)
    I     Atom           X                Y                Z
 ----------------------------------------------------------------
    1      Si      2.7016070000     0.1256908880    -0.2704001780
    2      H       3.8819402470    -0.7649558770    -0.3943516510
    3      H       3.0747816850     1.2545721600     0.6066969630
    4      H       2.3456832810     0.6069872920    -1.6205937720
    5      N       1.2749588780    -0.6110370740     0.4070642680
    6      H       1.3277055390    -0.9322949680     1.3629654710
    7      H       0.8219587370    -1.3251363730    -0.1454722110
    8      GH     -3.0988708220     0.0017978030    -0.2335827090
    9      GH     -3.1428954020     0.7003566050    -1.5458712950
   10      GH     -4.4886252870    -0.0568776400     0.2705430240
   11      GH     -2.5962486800    -1.3683666270    -0.4899514450
   12      GH     -2.0877439960     0.6957771730     0.9816526600
   13      GH     -2.3130979830     1.6115174980     1.3350477050
   14      GH     -1.0886523770     0.5972588060     0.8450118600
 ----------------------------------------------------------------
 Nuclear Repulsion Energy =    64.5403355067 hartrees
 There are       13 alpha and       13 beta electrons
 Requested basis set is aug-cc-pVTZ
 There are 150 shells and 422 basis functions

 Total QAlloc Memory Limit   4000 MB
 Mega-Array Size       188 MB
 MEM_STATIC part       192 MB

                       Distance Matrix (Angstroms)
             Si(  1)   H (  2)   H (  3)   H (  4)   N (  5)   H (  6)
   H (  2)  1.483847
   H (  3)  1.477475  2.394180
   H (  4)  1.476940  2.397078  2.431414
   N (  5)  1.742714  2.731723  2.599945  2.596427
   H (  6)  2.382189  3.104880  2.899415  3.508175  1.009820
   H (  7)  2.377727  3.120774  3.506546  2.868941  1.010170  1.638746
   GH(  8)  5.801918  7.024634  6.355273  5.650949  4.462777  4.797507
   GH(  9)  6.009599  7.267837  6.603046  5.489881  5.005112  5.577917
   GH( 10)  7.212863  8.426733  7.683621  7.122141  5.791773  5.982428
   GH( 11)  5.508873  6.506933  6.343740  5.440870  4.045298  4.361293
   GH( 12)  4.983023  6.297957  5.206200  5.141483  3.653175  3.802803
   GH( 13)  5.471052  6.856890  5.448592  5.607953  4.321464  4.441533
   GH( 14)  3.979018  5.300796  4.221734  4.227761  2.690434  2.906303
             H (  7)   GH(  8)   GH(  9)   GH( 10)   GH( 11)   GH( 12)
   GH(  8)  4.140220
   GH(  9)  4.667313  1.487287
   GH( 10)  5.475751  1.479528  2.384062
   GH( 11)  3.435793  1.481791  2.386086  2.424757
   GH( 12)  3.717643  1.726494  2.738931  2.614650  2.585515
   GH( 13)  4.543617  2.381016  3.133444  2.941026  3.505782  1.007101
   GH( 14)  2.885671  2.357736  3.153865  3.509662  2.814011  1.013193
             GH( 13)
   GH( 14)  1.663768
 
 A cutoff of  1.0D-08 yielded   9388 shell pairs
 There are     72478 function pairs (     92966 Cartesian)
 
 -------------------------------------------------------
 OpenMP Integral Computing Module                       
 Release: version 1.0, May 2013, Q-Chem Inc. Pittsburgh 
 -------------------------------------------------------
 Integral Job Info:
 Integral job number is                      11
 Integral operator is                         1
 short-range coefficients                     0
 long-range coefficients              100000000
 Omega coefficients                           0
 if combine SR and LR in K                    0
 Integral screening is                        0
 Integral computing path is                   2
 max size of driver memory is            800000
 size of driver memory is                776718
 size of scratch memory is             29531563
 max col of scratch BK array              10000
 max len of scratch array in speh3          662
 max len of scratch index in speh4           32
 max int batch size is                      520
 min int batch size is                       52
 fixed nKL is                                31
 max L of basis functions is                  3
 order of int derivative is                   0
 number of shells is                        150
 number of basis is                         478
 number of cartesian basis is               478
 number of contracted shell pairs          9388
 number of primitive shell pairs          26770
 maxK2 (contraction) of shell pair          169
 max number of K2 of shell pair               1
 max number of CS2 of shell pair           1704
 max number of PS2 of shell pair           2522
 mem total for path MDJ                  731868
 -------------------------------------------------------
 Smallest overlap matrix eigenvalue = 1.72E-05

 Q-Chem warning in module stvman/mkSTV.C, line 306:

 Overlap eigenvalue is smaller than square root of threshold
 Use THRESH >= 12 to get rid of this warning


 Scale SEOQF with 1.000000e-01/1.000000e-01/1.000000e-01

 Standard Electronic Orientation quadrupole field applied
 Nucleus-field energy     =     0.0000000050 hartrees
 Guess from superposition of atomic densities
 Warning:  Energy on first SCF cycle will be non-variational
 SAD guess density has 26.000000 electrons

 -----------------------------------------------------------------------
  General SCF calculation program by
  Eric Jon Sundstrom, Paul Horn, Yuezhi Mao, Dmitri Zuev, Alec White,
  David Stuck, Shaama M.S., Shane Yost, Joonho Lee, David Small,
  Daniel Levine, Susi Lehtola, Hugh Burton, Evgeny Epifanovsky
 -----------------------------------------------------------------------
 Hartree-Fock
 using 6 threads for integral computing
 -------------------------------------------------------
 OpenMP Integral computing Module                
 Release: version 1.0, May 2013, Q-Chem Inc. Pittsburgh 
 -------------------------------------------------------
 A restricted SCF calculation will be
 performed using DIIS
 SCF converges when DIIS error is below 1.0e-05
 ---------------------------------------
  Cycle       Energy         DIIS error
 ---------------------------------------
    1    -346.4319605998      1.19e-02  
    2    -346.3128450485      1.18e-03  
    3    -346.3436905420      5.56e-04  
    4    -346.3497898219      1.37e-04  
    5    -346.3504050096      1.85e-05  
    6    -346.3504231590      4.48e-06  Convergence criterion met
 ---------------------------------------
 SCF time:   CPU 353.69s  wall 59.00s 
 SCF   energy in the final basis set =     -346.3504231590
 Total energy in the final basis set =     -346.3504231590
 
 Components of the MP2 correlation energy:
        aaaa  correlation energy =        -0.0353626287 au
        abab  correlation energy =        -0.2895450943 au
        bbbb  correlation energy =        -0.0353626287 au
        non-Brillouin singles    =        -0.0000000000 au

 Total  MP2   correlation energy =                    -0.36027035 au
        MP2         total energy =                  -346.71069351 au
 
 --------------------------------------------------------------
 
                    Orbital Energies (a.u.)
 --------------------------------------------------------------
 
 Alpha MOs
 -- Occupied --
-68.779 -15.538  -6.126  -4.232  -4.232  -4.232  -1.135  -0.720
 -0.652  -0.552  -0.492  -0.477  -0.405
 -- Virtual --
  0.020   0.034   0.040   0.040   0.051   0.055   0.058   0.063
  0.069   0.074   0.076   0.080   0.085   0.086   0.094   0.104
  0.112   0.136   0.140   0.144   0.148   0.157   0.160   0.171
  0.172   0.177   0.183   0.190   0.194   0.200   0.201   0.207
  0.211   0.218   0.222   0.232   0.239   0.246   0.250   0.258
  0.268   0.278   0.284   0.293   0.302   0.314   0.323   0.329
  0.334   0.336   0.344   0.351   0.355   0.360   0.368   0.371
  0.373   0.387   0.389   0.393   0.395   0.404   0.410   0.410
  0.419   0.427   0.430   0.439   0.448   0.457   0.459   0.462
  0.468   0.478   0.493   0.494   0.503   0.506   0.521   0.528
  0.536   0.544   0.555   0.561   0.581   0.599   0.604   0.618
  0.623   0.632   0.637   0.645   0.649   0.658   0.664   0.673
  0.678   0.687   0.700   0.703   0.712   0.717   0.724   0.730
  0.745   0.758   0.770   0.783   0.790   0.801   0.811   0.818
  0.823   0.834   0.840   0.851   0.864   0.879   0.899   0.912
  0.920   0.926   0.945   0.949   0.955   0.964   0.967   0.983
  0.985   0.991   0.996   1.015   1.016   1.039   1.040   1.046
  1.053   1.068   1.075   1.083   1.089   1.092   1.109   1.119
  1.123   1.131   1.134   1.144   1.153   1.161   1.170   1.178
  1.186   1.188   1.200   1.203   1.211   1.216   1.218   1.226
  1.233   1.257   1.265   1.266   1.287   1.291   1.299   1.304
  1.310   1.323   1.326   1.336   1.347   1.354   1.366   1.372
  1.377   1.387   1.390   1.405   1.410   1.422   1.434   1.441
  1.444   1.455   1.461   1.490   1.494   1.503   1.515   1.523
  1.532   1.548   1.562   1.566   1.579   1.582   1.617   1.626
  1.649   1.654   1.673   1.688   1.699   1.742   1.746   1.766
  1.767   1.774   1.788   1.792   1.809   1.829   1.840   1.859
  1.873   1.890   1.901   1.913   1.941   1.956   1.963   1.986
  2.014   2.017   2.041   2.055   2.076   2.088   2.101   2.106
  2.123   2.125   2.166   2.181   2.197   2.218   2.238   2.244
  2.251   2.264   2.285   2.302   2.330   2.346   2.374   2.397
  2.410   2.423   2.442   2.481   2.489   2.504   2.515   2.578
  2.581   2.623   2.654   2.715   2.735   2.835   2.853   2.890
  2.916   2.991   3.023   3.052   3.089   3.133   3.142   3.169
  3.207   3.363   3.391   3.566   3.649   3.681   3.719   3.756
  3.789   3.800   3.836   3.992   4.004   4.038   4.060   4.077
  4.089   4.103   4.128   4.134   4.165   4.185   4.187   4.230
  4.242   4.247   4.271   4.278   4.279   4.306   4.313   4.326
  4.358   4.368   4.384   4.396   4.400   4.429   4.469   4.482
  4.487   4.494   4.505   4.514   4.552   4.553   4.561   4.566
  4.586   4.608   4.617   4.631   4.640   4.643   4.669   4.674
  4.688   4.708   4.723   4.758   4.768   4.799   4.821   4.836
  4.847   4.868   4.905   4.973   4.984   5.027   5.041   5.045
  5.078   5.093   5.106   5.114   5.127   5.158   5.174   5.187
  5.193   5.221   5.241   5.264   5.294   5.315   5.321   5.331
  5.348   5.377   5.411   5.437   5.464   5.475   5.558   5.577
  5.605   5.749   5.795   5.885   5.987   6.025   6.035   6.063
  6.076   6.126   6.166   6.201   6.205   6.233   6.368   6.534
  6.636   6.651   6.668   6.764   6.877   7.462   7.515   7.585
  7.647   7.792   7.896   8.174   8.912   9.278   9.382  10.110
 11.058  12.106  14.747  16.500  20.338  20.470  20.968  58.074
106.975
 --------------------------------------------------------------
 
          Ground-State Mulliken Net Atomic Charges

     Atom                 Charge (a.u.)
  ----------------------------------------
      1 Si                    0.990680
      2 H                    -0.339306
      3 H                    -0.286069
      4 H                    -0.274268
      5 N                    -0.313423
      6 H                     0.099851
      7 H                     0.108654
      8 GH                   -0.002881
      9 GH                   -0.000850
     10 GH                    0.000151
     11 GH                    0.000507
     12 GH                   -0.007413
     13 GH                   -0.001297
     14 GH                    0.025666
  ----------------------------------------
  Sum of atomic charges =    -0.000000

 -----------------------------------------------------------------
                    Cartesian Multipole Moments
 -----------------------------------------------------------------
    Charge (ESU x 10^10)
                -0.0000
    Dipole Moment (Debye)
         X      -0.0534      Y      -1.1944      Z       0.3279
       Tot       1.2398
    Quadrupole Moments (Debye-Ang)
        XX     -23.9448     XY      -0.3713     YY     -21.0356
        XZ       1.0848     YZ      -0.6420     ZZ     -20.8040
    Octopole Moments (Debye-Ang^2)
       XXX    -163.8739    XXY       4.8261    XYY     -52.3948
       YYY       4.0543    XXZ       3.5149    XYZ      -2.0155
       YYZ       1.4036    XZZ     -49.3860    YZZ      -0.9437
       ZZZ      10.0177
    Hexadecapole Moments (Debye-Ang^3)
      XXXX    -867.2563   XXXY      15.1213   XXYY    -155.1442
      XYYY      -3.0997   YYYY     -67.4974   XXXZ      27.8774
      XXYZ      -4.6185   XYYZ       7.6250   YYYZ       7.1561
      XXZZ    -145.3281   XYZZ      -5.3761   YYZZ     -20.7852
      XZZZ      34.5124   YZZZ       4.6581   ZZZZ     -63.4290
 -----------------------------------------------------------------
Archival summary:
1\1\gm4.localdomain\SP\MP2\BasisUnspecified\i115h7\xuedong\ThuJul410:42:222019ThuJul410:42:222019\0\\#,MP2,BasisUnspecified,\\0,1\Si\H,1,1.47694\H,1,1.47747,2,110.768\H,1,1.48385,2,108.115,3,-118.024,0\N,1,1.74271,2,107.209,3,116.886,0\H,5,1.00982,1,117.369,2,-175.436,0\H,5,1.01017,1,116.957,2,53.0464,0\Gh,5,2.69043,1,126.343,2,-60.0109,0\Gh,8,1.01319,5,158.736,1,155.726,0\Gh,9,1.0071,8,110.879,5,166.832,0\Gh,9,1.72649,8,116.327,5,-53.3816,0\Gh,11,1.47953,9,109.04,8,166.451,0\Gh,11,1.48179,9,107.146,8,47.5128,0\Gh,11,1.48729,9,116.718,8,-72.2908,0\\HF=-346.350423\MP2=-346.710694\\@

 Total job time:  222.88s(wall), 1329.30s(cpu) 
 Thu Jul  4 10:42:22 2019

        *************************************************************
        *                                                           *
        *  Thank you very much for using Q-Chem.  Have a nice day.  *
        *                                                           *
        *************************************************************



Running Job 3 of 3 ../qm_inp/SiH3NH2_SiH3NH2_con2.120.qcinp
qchem ../qm_inp/SiH3NH2_SiH3NH2_con2.120.qcinp_38916.2 /scratch/xuedong/qchem38916/ 1
/home/qwang/software/qchem5.1.2/exe/qcprog.exe_s ../qm_inp/SiH3NH2_SiH3NH2_con2.120.qcinp_38916.2 /scratch/xuedong/qchem38916/
Check license passed

                  Welcome to Q-Chem
     A Quantum Leap Into The Future Of Chemistry


 Q-Chem 5.1, Q-Chem, Inc., Pleasanton, CA (2018)

 Yihan Shao,  Zhengting Gan,  E. Epifanovsky,  A. T. B. Gilbert,  M. Wormit,  
 J. Kussmann,  A. W. Lange,  A. Behn,  Jia Deng,  Xintian Feng,  D. Ghosh,  
 M. Goldey,  P. R. Horn,  L. D. Jacobson,  I. Kaliman,  T. Kus,  A. Landau,  
 Jie Liu,  E. I. Proynov,  R. M. Richard,  R. P. Steele,  E. J. Sundstrom,  
 H. L. Woodcock III,  P. M. Zimmerman,  D. Zuev,  B. Albrecht,  E. Alguire,  
 S. A. Baeppler,  D. Barton,  Z. Benda,  Y. A. Bernard,  E. J. Berquist,  
 K. B. Bravaya,  H. Burton,  D. Casanova,  Chun-Min Chang,  Yunqing Chen,  
 A. Chien,  K. D. Closser,  M. P. Coons,  S. Coriani,  S. Dasgupta,  
 A. L. Dempwolff,  M. Diedenhofen,  Hainam Do,  R. G. Edgar,  Po-Tung Fang,  
 S. Faraji,  S. Fatehi,  Qingguo Feng,  K. D. Fenk,  J. Fosso-Tande,  
 J. Gayvert,  Qinghui Ge,  A. Ghysels,  G. Gidofalvi,  J. Gomes,  
 J. Gonthier,  A. Gunina,  D. Hait,  M. W. D. Hanson-Heine,  
 P. H. P. Harbach,  A. W. Hauser,  J. E. Herr,  E. G. Hohenstein,  
 Z. C. Holden,  Kerwin Hui,  B. C. Huynh,  T.-C. Jagau,  Hyunjun Ji,  
 B. Kaduk,  K. Khistyaev,  Jaehoon Kim,  P. Klunzinger,  K. Koh,  
 D. Kosenkov,  L. Koulias,  T. Kowalczyk,  C. M. Krauter,  A. Kunitsa,  
 Ka Un Lao,  A. Laurent,  K. V. Lawler,  Joonho Lee,  D. Lefrancois,  
 S. Lehtola,  D. S. Levine,  Yi-Pei Li,  You-Sheng Lin,  Fenglai Liu,  
 E. Livshits,  A. Luenser,  P. Manohar,  E. Mansoor,  S. F. Manzer,  
 Shan-Ping Mao,  Yuezhi Mao,  N. Mardirossian,  A. V. Marenich,  
 T. Markovich,  L. A. Martinez-Martinez,  S. A. Maurer,  N. J. Mayhall,  
 S. C. McKenzie,  J.-M. Mewes,  A. F. Morrison,  J. W. Mullinax,  K. Nanda,  
 T. S. Nguyen-Beck,  R. Olivares-Amaya,  J. A. Parkhill,  T. M. Perrine,  
 F. Plasser,  P. Pokhilko,  S. Prager,  A. Prociuk,  E. Ramos,  D. R. Rehn,  
 F. Rob,  M. Schneider,  N. Sergueev,  S. M. Sharada,  S. Sharma,  
 D. W. Small,  T. Stauch,  T. Stein,  Yu-Chuan Su,  A. J. W. Thom,  
 A. Tkatchenko,  T. Tsuchimochi,  N. M. Tubman,  L. Vogt,  M. L. Vidal,  
 O. Vydrov,  M. A. Watson,  J. Wenzel,  M. de Wergifosse,  T. A. Wesolowski,  
 A. White,  J. Witte,  A. Yamada,  Jun Yang,  K. Yao,  S. Yeganeh,  
 S. R. Yost,  Zhi-Qiang You,  A. Zech,  Igor Ying Zhang,  Xing Zhang,  
 Yan Zhao,  Ying Zhu,  B. R. Brooks,  G. K. L. Chan,  C. J. Cramer,  
 M. S. Gordon,  W. J. Hehre,  A. Klamt,  M. W. Schmidt,  C. D. Sherrill,  
 D. G. Truhlar,  A. Aspuru-Guzik,  R. Baer,  A. T. Bell,  N. A. Besley,  
 Jeng-Da Chai,  A. E. DePrince, III,  R. A. DiStasio Jr.,  A. Dreuw,  
 B. D. Dunietz,  T. R. Furlani,  Chao-Ping Hsu,  Yousung Jung,  Jing Kong,  
 D. S. Lambrecht,  WanZhen Liang,  C. Ochsenfeld,  V. A. Rassolov,  
 L. V. Slipchenko,  J. E. Subotnik,  T. Van Voorhis,  J. M. Herbert,  
 A. I. Krylov,  P. M. W. Gill,  M. Head-Gordon

 Contributors to earlier versions of Q-Chem not listed above: 
 R. D. Adamson,  B. Austin,  J. Baker,  G. J. O. Beran,  K. Brandhorst,  
 S. T. Brown,  E. F. C. Byrd,  A. K. Chakraborty,  C.-L. Cheng,  
 Siu Hung Chien,  D. M. Chipman,  D. L. Crittenden,  H. Dachsel,  
 R. J. Doerksen,  A. D. Dutoi,  L. Fusti-Molnar,  W. A. Goddard III,  
 A. Golubeva-Zadorozhnaya,  S. R. Gwaltney,  G. Hawkins,  A. Heyden,  
 S. Hirata,  G. Kedziora,  F. J. Keil,  C. Kelley,  Jihan Kim,  R. A. King,  
 R. Z. Khaliullin,  P. P. Korambath,  W. Kurlancheek,  A. M. Lee,  M. S. Lee,  
 S. V. Levchenko,  Ching Yeh Lin,  D. Liotard,  R. C. Lochan,  I. Lotan,  
 P. E. Maslen,  N. Nair,  D. P. O'Neill,  D. Neuhauser,  E. Neuscamman,  
 C. M. Oana,  R. Olson,  B. Peters,  R. Peverati,  P. A. Pieniazek,  
 Y. M. Rhee,  J. Ritchie,  M. A. Rohrdanz,  E. Rosta,  N. J. Russ,  
 H. F. Schaefer III,  N. E. Schultz,  N. Shenvi,  A. C. Simmonett,  A. Sodt,  
 D. Stuck,  K. S. Thanthiriwatte,  V. Vanovschi,  Tao Wang,  A. Warshel,  
 C. F. Williams,  Q. Wu,  X. Xu,  W. Zhang

 Please cite Q-Chem as follows:
 Y. Shao et al., Mol. Phys. 113, 184-215 (2015)
 DOI: 10.1080/00268976.2014.952696

 Q-Chem 5.1.2 for Intel X86 EM64T Linux

 Parts of Q-Chem use Armadillo 8.300.2 (Tropical Shenanigans).
 http://arma.sourceforge.net/

 Q-Chem begins on Thu Jul  4 10:42:22 2019  

Host: 
0

     Scratch files written to /scratch/xuedong/qchem38916//
 Dec218 |scratch|qcdevops|jenkins|workspace|build_RNUM 6581   
Processing $rem in /home/qwang/software/qchem5.1.2/config/preferences.
 MEM_TOTAL  4000 
Core orbitals will be frozen
Input Ideriv = 1
Curr. Ideriv = -1
Max.  Ideriv = 1

Checking the input file for inconsistencies... 	...done.

--------------------------------------------------------------
User input:
--------------------------------------------------------------

$molecule
0 1
@Si     2.701607000     0.125690888    -0.270400178
@H      3.881940247    -0.764955877    -0.394351651
@H      3.074781685     1.254572160     0.606696963
@H      2.345683281     0.606987292    -1.620593772
@N      1.274958878    -0.611037074     0.407064268
@H      1.327705539    -0.932294968     1.362965471
@H      0.821958737    -1.325136373    -0.145472211
Si    -3.098870822     0.001797803    -0.233582709
H     -3.142895402     0.700356605    -1.545871295
H     -4.488625287    -0.056877640     0.270543024
H     -2.596248680    -1.368366627    -0.489951445
N     -2.087743996     0.695777173     0.981652660
H     -2.313097983     1.611517498     1.335047705
H     -1.088652377     0.597258806     0.845011860
$end

$rem
BASIS = aug-cc-pVTZ
JOB_TYPE  =  SP
METHOD  =  MP2
SCF_MAX_CYCLES  =  200
$end

--------------------------------------------------------------
 ----------------------------------------------------------------
             Standard Nuclear Orientation (Angstroms)
    I     Atom           X                Y                Z
 ----------------------------------------------------------------
    1      GH      2.7016070000     0.1256908880    -0.2704001780
    2      GH      3.8819402470    -0.7649558770    -0.3943516510
    3      GH      3.0747816850     1.2545721600     0.6066969630
    4      GH      2.3456832810     0.6069872920    -1.6205937720
    5      GH      1.2749588780    -0.6110370740     0.4070642680
    6      GH      1.3277055390    -0.9322949680     1.3629654710
    7      GH      0.8219587370    -1.3251363730    -0.1454722110
    8      Si     -3.0988708220     0.0017978030    -0.2335827090
    9      H      -3.1428954020     0.7003566050    -1.5458712950
   10      H      -4.4886252870    -0.0568776400     0.2705430240
   11      H      -2.5962486800    -1.3683666270    -0.4899514450
   12      N      -2.0877439960     0.6957771730     0.9816526600
   13      H      -2.3130979830     1.6115174980     1.3350477050
   14      H      -1.0886523770     0.5972588060     0.8450118600
 ----------------------------------------------------------------
 Nuclear Repulsion Energy =    64.8016662556 hartrees
 There are       13 alpha and       13 beta electrons
 Requested basis set is aug-cc-pVTZ
 There are 150 shells and 422 basis functions

 Total QAlloc Memory Limit   4000 MB
 Mega-Array Size       188 MB
 MEM_STATIC part       192 MB

                       Distance Matrix (Angstroms)
             GH(  1)   GH(  2)   GH(  3)   GH(  4)   GH(  5)   GH(  6)
   GH(  2)  1.483847
   GH(  3)  1.477475  2.394180
   GH(  4)  1.476940  2.397078  2.431414
   GH(  5)  1.742714  2.731723  2.599945  2.596427
   GH(  6)  2.382189  3.104880  2.899415  3.508175  1.009820
   GH(  7)  2.377727  3.120774  3.506546  2.868941  1.010170  1.638746
   Si(  8)  5.801918  7.024634  6.355273  5.650949  4.462777  4.797507
   H (  9)  6.009599  7.267837  6.603046  5.489881  5.005112  5.577917
   H ( 10)  7.212863  8.426733  7.683621  7.122141  5.791773  5.982428
   H ( 11)  5.508873  6.506933  6.343740  5.440870  4.045298  4.361293
   N ( 12)  4.983023  6.297957  5.206200  5.141483  3.653175  3.802803
   H ( 13)  5.471052  6.856890  5.448592  5.607953  4.321464  4.441533
   H ( 14)  3.979018  5.300796  4.221734  4.227761  2.690434  2.906303
             GH(  7)   Si(  8)   H (  9)   H ( 10)   H ( 11)   N ( 12)
   Si(  8)  4.140220
   H (  9)  4.667313  1.487287
   H ( 10)  5.475751  1.479528  2.384062
   H ( 11)  3.435793  1.481791  2.386086  2.424757
   N ( 12)  3.717643  1.726494  2.738931  2.614650  2.585515
   H ( 13)  4.543617  2.381016  3.133444  2.941026  3.505782  1.007101
   H ( 14)  2.885671  2.357736  3.153865  3.509662  2.814011  1.013193
             H ( 13)
   H ( 14)  1.663768
 
 A cutoff of  1.0D-08 yielded   9388 shell pairs
 There are     72478 function pairs (     92966 Cartesian)
 
 -------------------------------------------------------
 OpenMP Integral Computing Module                       
 Release: version 1.0, May 2013, Q-Chem Inc. Pittsburgh 
 -------------------------------------------------------
 Integral Job Info:
 Integral job number is                      11
 Integral operator is                         1
 short-range coefficients                     0
 long-range coefficients              100000000
 Omega coefficients                           0
 if combine SR and LR in K                    0
 Integral screening is                        0
 Integral computing path is                   2
 max size of driver memory is            800000
 size of driver memory is                776718
 size of scratch memory is             29531563
 max col of scratch BK array              10000
 max len of scratch array in speh3          662
 max len of scratch index in speh4           32
 max int batch size is                      520
 min int batch size is                       52
 fixed nKL is                                31
 max L of basis functions is                  3
 order of int derivative is                   0
 number of shells is                        150
 number of basis is                         478
 number of cartesian basis is               478
 number of contracted shell pairs          9388
 number of primitive shell pairs          26770
 maxK2 (contraction) of shell pair          169
 max number of K2 of shell pair               1
 max number of CS2 of shell pair           1704
 max number of PS2 of shell pair           2522
 mem total for path MDJ                  731868
 -------------------------------------------------------
 Smallest overlap matrix eigenvalue = 1.72E-05

 Q-Chem warning in module stvman/mkSTV.C, line 306:

 Overlap eigenvalue is smaller than square root of threshold
 Use THRESH >= 12 to get rid of this warning


 Scale SEOQF with 1.000000e-01/1.000000e-01/1.000000e-01

 Standard Electronic Orientation quadrupole field applied
 Nucleus-field energy     =     0.0000000067 hartrees
 Guess from superposition of atomic densities
 Warning:  Energy on first SCF cycle will be non-variational
 SAD guess density has 26.000000 electrons

 -----------------------------------------------------------------------
  General SCF calculation program by
  Eric Jon Sundstrom, Paul Horn, Yuezhi Mao, Dmitri Zuev, Alec White,
  David Stuck, Shaama M.S., Shane Yost, Joonho Lee, David Small,
  Daniel Levine, Susi Lehtola, Hugh Burton, Evgeny Epifanovsky
 -----------------------------------------------------------------------
 Hartree-Fock
 using 6 threads for integral computing
 -------------------------------------------------------
 OpenMP Integral computing Module                
 Release: version 1.0, May 2013, Q-Chem Inc. Pittsburgh 
 -------------------------------------------------------
 A restricted SCF calculation will be
 performed using DIIS
 SCF converges when DIIS error is below 1.0e-05
 ---------------------------------------
  Cycle       Energy         DIIS error
 ---------------------------------------
    1    -346.4454936358      1.19e-02  
    2    -346.3137022914      1.17e-03  
    3    -346.3440612083      5.41e-04  
    4    -346.3498680289      1.37e-04  
    5    -346.3504759375      1.81e-05  
    6    -346.3504931381      4.38e-06  Convergence criterion met
 ---------------------------------------
 SCF time:   CPU 326.72s  wall 55.00s 
 SCF   energy in the final basis set =     -346.3504931381
 Total energy in the final basis set =     -346.3504931381
 
 Components of the MP2 correlation energy:
        aaaa  correlation energy =        -0.0353437243 au
        abab  correlation energy =        -0.2892836492 au
        bbbb  correlation energy =        -0.0353437243 au
        non-Brillouin singles    =        -0.0000000000 au

 Total  MP2   correlation energy =                    -0.35997110 au
        MP2         total energy =                  -346.71046424 au
 
 --------------------------------------------------------------
 
                    Orbital Energies (a.u.)
 --------------------------------------------------------------
 
 Alpha MOs
 -- Occupied --
-68.778 -15.540  -6.124  -4.231  -4.231  -4.230  -1.138  -0.720
 -0.660  -0.554  -0.492  -0.474  -0.405
 -- Virtual --
  0.018   0.034   0.039   0.042   0.050   0.053   0.060   0.063
  0.069   0.071   0.075   0.080   0.083   0.091   0.094   0.099
  0.109   0.135   0.141   0.141   0.145   0.149   0.155   0.171
  0.172   0.179   0.185   0.189   0.197   0.200   0.203   0.205
  0.207   0.214   0.224   0.234   0.239   0.241   0.253   0.260
  0.265   0.283   0.293   0.299   0.303   0.307   0.308   0.313
  0.327   0.331   0.334   0.340   0.354   0.362   0.364   0.366
  0.376   0.379   0.381   0.389   0.394   0.405   0.408   0.416
  0.421   0.427   0.434   0.438   0.442   0.448   0.453   0.466
  0.468   0.474   0.482   0.493   0.507   0.515   0.519   0.523
  0.535   0.545   0.558   0.563   0.580   0.595   0.601   0.612
  0.621   0.623   0.628   0.639   0.648   0.659   0.667   0.671
  0.673   0.684   0.690   0.700   0.712   0.715   0.723   0.730
  0.745   0.757   0.766   0.774   0.795   0.801   0.805   0.816
  0.820   0.827   0.839   0.842   0.856   0.867   0.878   0.896
  0.910   0.917   0.920   0.936   0.941   0.950   0.971   0.976
  0.987   0.992   0.996   1.002   1.008   1.025   1.034   1.041
  1.051   1.061   1.074   1.080   1.096   1.106   1.119   1.123
  1.124   1.134   1.136   1.149   1.153   1.157   1.164   1.168
  1.185   1.190   1.196   1.203   1.214   1.222   1.230   1.233
  1.244   1.254   1.264   1.272   1.277   1.282   1.290   1.301
  1.313   1.318   1.325   1.330   1.346   1.349   1.355   1.362
  1.377   1.379   1.393   1.396   1.409   1.416   1.422   1.431
  1.442   1.449   1.455   1.474   1.485   1.500   1.507   1.517
  1.533   1.538   1.549   1.565   1.572   1.579   1.599   1.613
  1.629   1.638   1.645   1.667   1.685   1.691   1.712   1.718
  1.741   1.764   1.780   1.791   1.816   1.827   1.839   1.860
  1.889   1.899   1.919   1.935   1.952   1.972   1.986   2.001
  2.005   2.012   2.023   2.040   2.064   2.082   2.100   2.120
  2.131   2.134   2.141   2.157   2.171   2.220   2.232   2.246
  2.252   2.272   2.294   2.311   2.319   2.328   2.371   2.377
  2.403   2.426   2.449   2.456   2.486   2.515   2.532   2.576
  2.587   2.610   2.647   2.719   2.788   2.816   2.841   2.863
  2.910   2.971   2.989   3.032   3.075   3.102   3.142   3.183
  3.214   3.256   3.392   3.529   3.617   3.692   3.694   3.747
  3.763   3.775   3.815   3.987   3.996   4.015   4.024   4.072
  4.095   4.118   4.131   4.142   4.166   4.190   4.197   4.232
  4.238   4.245   4.253   4.266   4.286   4.299   4.315   4.324
  4.353   4.361   4.369   4.390   4.393   4.415   4.464   4.470
  4.485   4.505   4.525   4.529   4.538   4.555   4.557   4.569
  4.583   4.598   4.607   4.612   4.641   4.643   4.650   4.655
  4.691   4.713   4.722   4.756   4.775   4.797   4.808   4.818
  4.831   4.850   4.896   4.964   4.967   4.991   5.027   5.055
  5.080   5.086   5.099   5.115   5.124   5.140   5.171   5.177
  5.212   5.217   5.234   5.267   5.290   5.302   5.319   5.341
  5.363   5.388   5.395   5.429   5.451   5.473   5.550   5.557
  5.615   5.722   5.758   5.934   5.968   5.997   6.006   6.051
  6.077   6.119   6.176   6.193   6.220   6.234   6.405   6.513
  6.615   6.659   6.681   6.801   6.823   7.434   7.503   7.519
  7.605   7.755   7.825   8.131   8.821   9.293   9.499  10.146
 10.989  11.951  14.891  16.823  20.388  20.424  21.038  57.398
106.990
 --------------------------------------------------------------
 
          Ground-State Mulliken Net Atomic Charges

     Atom                 Charge (a.u.)
  ----------------------------------------
      1 GH                    0.001402
      2 GH                    0.000014
      3 GH                    0.000197
      4 GH                   -0.000453
      5 GH                    0.008920
      6 GH                    0.000289
      7 GH                   -0.002692
      8 Si                    1.103394
      9 H                    -0.353351
     10 H                    -0.306758
     11 H                    -0.292891
     12 N                    -0.508511
     13 H                     0.113741
     14 H                     0.236698
  ----------------------------------------
  Sum of atomic charges =     0.000000

 -----------------------------------------------------------------
                    Cartesian Multipole Moments
 -----------------------------------------------------------------
    Charge (ESU x 10^10)
                -0.0000
    Dipole Moment (Debye)
         X       0.7971      Y       1.0389      Z       0.0045
       Tot       1.3095
    Quadrupole Moments (Debye-Ang)
        XX     -24.8446     XY      -2.2615     YY     -20.5945
        XZ       0.1773     YZ       1.9538     ZZ     -24.3096
    Octopole Moments (Debye-Ang^2)
       XXX     198.0042    XXY       0.9950    XYY      57.6442
       YYY      -8.1383    XXZ      -2.3943    XYZ      -5.1474
       YYZ       2.4131    XZZ      67.4930    YZZ      -3.3971
       ZZZ      -8.0926
    Hexadecapole Moments (Debye-Ang^3)
      XXXX   -1193.5430   XXXY      14.4562   XXYY    -186.7007
      XYYY      13.0559   YYYY     -64.5526   XXXZ       2.4250
      XXYZ      10.3144   XYYZ     -11.3886   YYYZ      -7.5253
      XXZZ    -216.2664   XYZZ       7.8595   YYZZ     -22.8096
      XZZZ       1.5733   YZZZ     -10.4252   ZZZZ    -104.6477
 -----------------------------------------------------------------
Archival summary:
1\1\gm4.localdomain\SP\MP2\BasisUnspecified\i115h7\xuedong\ThuJul410:46:012019ThuJul410:46:012019\0\\#,MP2,BasisUnspecified,\\0,1\Si\H,1,1.47953\H,1,1.48179,2,109.932\H,1,1.48729,2,106.946,3,115.775,0\N,1,1.72649,2,109.04,3,-117.186,0\H,5,1.0071,1,118.779,2,-57.0413,0\H,5,1.01319,1,116.327,2,166.451,0\Gh,7,2.69043,5,158.736,1,-53.3816,0\Gh,8,1.00982,7,91.9872,5,-77.6476,0\Gh,8,1.01017,7,90.7191,5,30.831,0\Gh,8,1.74271,7,126.343,5,155.726,0\Gh,11,1.47694,8,107.209,7,-60.0109,0\Gh,11,1.47747,8,107.397,7,59.0699,0\Gh,11,1.48385,8,115.462,7,179.458,0\\HF=-346.350493\MP2=-346.710464\\@

 Total job time:  219.38s(wall), 1307.72s(cpu) 
 Thu Jul  4 10:46:01 2019

        *************************************************************
        *                                                           *
        *  Thank you very much for using Q-Chem.  Have a nice day.  *
        *                                                           *
        *************************************************************


