
Running Job 1 of 1 ../qm_inp/SiH3NH2_water.con1.150.qcinp
qchem ../qm_inp/SiH3NH2_water.con1.150.qcinp_18415.0 /scratch/xuedong/qchem18415/ 1
/home/qwang/software/qchem5.1.2/exe/qcprog.exe_s ../qm_inp/SiH3NH2_water.con1.150.qcinp_18415.0 /scratch/xuedong/qchem18415/
Check license passed

                  Welcome to Q-Chem
     A Quantum Leap Into The Future Of Chemistry


 Q-Chem 5.1, Q-Chem, Inc., Pleasanton, CA (2018)

 Yihan Shao,  Zhengting Gan,  E. Epifanovsky,  A. T. B. Gilbert,  M. Wormit,  
 J. Kussmann,  A. W. Lange,  A. Behn,  Jia Deng,  Xintian Feng,  D. Ghosh,  
 M. Goldey,  P. R. Horn,  L. D. Jacobson,  I. Kaliman,  T. Kus,  A. Landau,  
 Jie Liu,  E. I. Proynov,  R. M. Richard,  R. P. Steele,  E. J. Sundstrom,  
 H. L. Woodcock III,  P. M. Zimmerman,  D. Zuev,  B. Albrecht,  E. Alguire,  
 S. A. Baeppler,  D. Barton,  Z. Benda,  Y. A. Bernard,  E. J. Berquist,  
 K. B. Bravaya,  H. Burton,  D. Casanova,  Chun-Min Chang,  Yunqing Chen,  
 A. Chien,  K. D. Closser,  M. P. Coons,  S. Coriani,  S. Dasgupta,  
 A. L. Dempwolff,  M. Diedenhofen,  Hainam Do,  R. G. Edgar,  Po-Tung Fang,  
 S. Faraji,  S. Fatehi,  Qingguo Feng,  K. D. Fenk,  J. Fosso-Tande,  
 J. Gayvert,  Qinghui Ge,  A. Ghysels,  G. Gidofalvi,  J. Gomes,  
 J. Gonthier,  A. Gunina,  D. Hait,  M. W. D. Hanson-Heine,  
 P. H. P. Harbach,  A. W. Hauser,  J. E. Herr,  E. G. Hohenstein,  
 Z. C. Holden,  Kerwin Hui,  B. C. Huynh,  T.-C. Jagau,  Hyunjun Ji,  
 B. Kaduk,  K. Khistyaev,  Jaehoon Kim,  P. Klunzinger,  K. Koh,  
 D. Kosenkov,  L. Koulias,  T. Kowalczyk,  C. M. Krauter,  A. Kunitsa,  
 Ka Un Lao,  A. Laurent,  K. V. Lawler,  Joonho Lee,  D. Lefrancois,  
 S. Lehtola,  D. S. Levine,  Yi-Pei Li,  You-Sheng Lin,  Fenglai Liu,  
 E. Livshits,  A. Luenser,  P. Manohar,  E. Mansoor,  S. F. Manzer,  
 Shan-Ping Mao,  Yuezhi Mao,  N. Mardirossian,  A. V. Marenich,  
 T. Markovich,  L. A. Martinez-Martinez,  S. A. Maurer,  N. J. Mayhall,  
 S. C. McKenzie,  J.-M. Mewes,  A. F. Morrison,  J. W. Mullinax,  K. Nanda,  
 T. S. Nguyen-Beck,  R. Olivares-Amaya,  J. A. Parkhill,  T. M. Perrine,  
 F. Plasser,  P. Pokhilko,  S. Prager,  A. Prociuk,  E. Ramos,  D. R. Rehn,  
 F. Rob,  M. Schneider,  N. Sergueev,  S. M. Sharada,  S. Sharma,  
 D. W. Small,  T. Stauch,  T. Stein,  Yu-Chuan Su,  A. J. W. Thom,  
 A. Tkatchenko,  T. Tsuchimochi,  N. M. Tubman,  L. Vogt,  M. L. Vidal,  
 O. Vydrov,  M. A. Watson,  J. Wenzel,  M. de Wergifosse,  T. A. Wesolowski,  
 A. White,  J. Witte,  A. Yamada,  Jun Yang,  K. Yao,  S. Yeganeh,  
 S. R. Yost,  Zhi-Qiang You,  A. Zech,  Igor Ying Zhang,  Xing Zhang,  
 Yan Zhao,  Ying Zhu,  B. R. Brooks,  G. K. L. Chan,  C. J. Cramer,  
 M. S. Gordon,  W. J. Hehre,  A. Klamt,  M. W. Schmidt,  C. D. Sherrill,  
 D. G. Truhlar,  A. Aspuru-Guzik,  R. Baer,  A. T. Bell,  N. A. Besley,  
 Jeng-Da Chai,  A. E. DePrince, III,  R. A. DiStasio Jr.,  A. Dreuw,  
 B. D. Dunietz,  T. R. Furlani,  Chao-Ping Hsu,  Yousung Jung,  Jing Kong,  
 D. S. Lambrecht,  WanZhen Liang,  C. Ochsenfeld,  V. A. Rassolov,  
 L. V. Slipchenko,  J. E. Subotnik,  T. Van Voorhis,  J. M. Herbert,  
 A. I. Krylov,  P. M. W. Gill,  M. Head-Gordon

 Contributors to earlier versions of Q-Chem not listed above: 
 R. D. Adamson,  B. Austin,  J. Baker,  G. J. O. Beran,  K. Brandhorst,  
 S. T. Brown,  E. F. C. Byrd,  A. K. Chakraborty,  C.-L. Cheng,  
 Siu Hung Chien,  D. M. Chipman,  D. L. Crittenden,  H. Dachsel,  
 R. J. Doerksen,  A. D. Dutoi,  L. Fusti-Molnar,  W. A. Goddard III,  
 A. Golubeva-Zadorozhnaya,  S. R. Gwaltney,  G. Hawkins,  A. Heyden,  
 S. Hirata,  G. Kedziora,  F. J. Keil,  C. Kelley,  Jihan Kim,  R. A. King,  
 R. Z. Khaliullin,  P. P. Korambath,  W. Kurlancheek,  A. M. Lee,  M. S. Lee,  
 S. V. Levchenko,  Ching Yeh Lin,  D. Liotard,  R. C. Lochan,  I. Lotan,  
 P. E. Maslen,  N. Nair,  D. P. O'Neill,  D. Neuhauser,  E. Neuscamman,  
 C. M. Oana,  R. Olson,  B. Peters,  R. Peverati,  P. A. Pieniazek,  
 Y. M. Rhee,  J. Ritchie,  M. A. Rohrdanz,  E. Rosta,  N. J. Russ,  
 H. F. Schaefer III,  N. E. Schultz,  N. Shenvi,  A. C. Simmonett,  A. Sodt,  
 D. Stuck,  K. S. Thanthiriwatte,  V. Vanovschi,  Tao Wang,  A. Warshel,  
 C. F. Williams,  Q. Wu,  X. Xu,  W. Zhang

 Please cite Q-Chem as follows:
 Y. Shao et al., Mol. Phys. 113, 184-215 (2015)
 DOI: 10.1080/00268976.2014.952696

 Q-Chem 5.1.2 for Intel X86 EM64T Linux

 Parts of Q-Chem use Armadillo 8.300.2 (Tropical Shenanigans).
 http://arma.sourceforge.net/

 Q-Chem begins on Wed Jul 10 17:00:39 2019  

Host: 
0

     Scratch files written to /scratch/xuedong/qchem18415//
 Dec218 |scratch|qcdevops|jenkins|workspace|build_RNUM 6581   
Processing $rem in /home/qwang/software/qchem5.1.2/config/preferences.
 MEM_TOTAL  4000 
Core orbitals will be frozen
Input Ideriv = 1
Curr. Ideriv = -1
Max.  Ideriv = 1

Checking the input file for inconsistencies... 	...done.

--------------------------------------------------------------
User input:
--------------------------------------------------------------
$molecule
0 1
--
0 1
O     2.640573347     0.387661768     0.484745646
H     2.428921256     0.658206165     1.379755289
H     1.777509297     0.191546571     0.091553062
--
0 1
Si    -2.374378927    -0.120281526    -0.130704545
H    -3.672236476    -0.383974870    -0.796925471
H    -2.353075601     1.291463642     0.301842312
H    -2.261197552    -1.026048831     1.030146237
N    -0.959204427    -0.375793696    -1.120660723
H    -0.843810941     0.231662196    -1.919509733
H    -0.770105187    -1.325213774    -1.409041280
$end

$rem
BASIS = aug-cc-pVTZ
JOB_TYPE  =  BSSE
METHOD  =  MP2
SCF_CONVERGENCE  =  7
SCF_MAX_CYCLES  =  200
$end

--------------------------------------------------------------
 ----------------------------------------------------------------
             Standard Nuclear Orientation (Angstroms)
    I     Atom           X                Y                Z
 ----------------------------------------------------------------
    1      O       3.4156909510     0.1396583853    -0.0025478716
    2      H       3.3837078479     1.0975595440     0.0183229410
    3      H       2.4837877081    -0.1237554308     0.0079706971
    4      Si     -1.6575789478     0.3597949462    -0.0005313606
    5      H      -3.0675604399    -0.0966473753    -0.0383641320
    6      H      -1.4070506398     1.1923324404    -1.1941359527
    7      H      -1.4610742323     1.1432261847     1.2357616322
    8      N      -0.4594478360    -0.9100468804     0.0009326158
    9      H      -0.4069928160    -1.4906505689    -0.8240679212
   10      H      -0.4281049154    -1.5061329603     0.8158064461
 ----------------------------------------------------------------
 Molecular Point Group                 C1    NOp =  1
 Largest Abelian Subgroup              C1    NOp =  1
 Nuclear Repulsion Energy =   103.4703484582 hartrees
 There are       18 alpha and       18 beta electrons
 Requested basis set is aug-cc-pVTZ
 There are 107 shells and 303 basis functions

 Total QAlloc Memory Limit   4000 MB
 Mega-Array Size       188 MB
 MEM_STATIC part       192 MB

                       Distance Matrix (Angstroms)
             O (  1)   H (  2)   H (  3)   Si(  4)   H (  5)   H (  6)
   H (  2)  0.958662
   H (  3)  0.968474  1.517094
   Si(  4)  5.078044  5.095020  4.169510
   H (  5)  6.487655  6.561113  5.551608  1.482504
   H (  6)  5.078075  4.942712  4.279693  1.476677  2.398869
   H (  7)  5.130633  4.995614  4.321417  1.476753  2.396139  2.430994
   N (  8)  4.014797  4.335970  3.046463  1.745858  2.732291  2.597333
   H (  9)  4.236238  4.666676  3.304134  2.380405  3.104705  2.887120
   H ( 10)  4.260645  4.684561  3.323054  2.379013  3.111749  3.504271
             H (  7)   N (  8)   H (  9)
   N (  8)  2.596919
   H (  9)  3.505894  1.010187
   H ( 10)  2.874455  1.010109  1.640083
 
 A cutoff of  1.0D-10 yielded   5263 shell pairs
 There are     41651 function pairs (     53650 Cartesian)
 
 -------------------------------------------------------
 OpenMP Integral Computing Module                       
 Release: version 1.0, May 2013, Q-Chem Inc. Pittsburgh 
 -------------------------------------------------------
 Integral Job Info:
 Integral job number is                      11
 Integral operator is                         1
 short-range coefficients                     0
 long-range coefficients              100000000
 Omega coefficients                           0
 if combine SR and LR in K                    0
 Integral screening is                        0
 Integral computing path is                   2
 max size of driver memory is            800000
 size of driver memory is                776718
 size of scratch memory is             29531563
 max col of scratch BK array              10000
 max len of scratch array in speh3          662
 max len of scratch index in speh4           32
 max int batch size is                      520
 min int batch size is                       52
 fixed nKL is                                31
 max L of basis functions is                  3
 order of int derivative is                   0
 number of shells is                        107
 number of basis is                         344
 number of cartesian basis is               344
 number of contracted shell pairs          5263
 number of primitive shell pairs          14836
 maxK2 (contraction) of shell pair          169
 max number of K2 of shell pair               1
 max number of CS2 of shell pair            922
 max number of PS2 of shell pair           1014
 mem total for path MDJ                  637296
 -------------------------------------------------------
 Smallest overlap matrix eigenvalue = 1.96E-05

 Scale SEOQF with 1.000000e-01/1.000000e-01/1.000000e-01

 Standard Electronic Orientation quadrupole field applied
 Nucleus-field energy     =     0.0000000066 hartrees
 Guess MOs from converged MOs on fragments

-----------------------------------------------------------------
 SCF on fragment 1 out of 2
/home/qwang/software/qchem5.1.2/exe/qcprog.exe /scratch/xuedong/qchem18415/Frg1.input /scratch/xuedong/qchem18415/Frg1/ > /dev/null 
 SCF on fragment 2 out of 2
/home/qwang/software/qchem5.1.2/exe/qcprog.exe /scratch/xuedong/qchem18415/Frg2.input /scratch/xuedong/qchem18415/Frg2/ > /dev/null 
-----------------------------------------------------------------
 Done with SCF on isolated fragments
-----------------------------------------------------------------

 User-specified occupied guess orbitals will be used
 A restricted Hartree-Fock SCF calculation will be
 performed using Pulay DIIS extrapolation
 SCF converges when DIIS error is below 1.0E-07
 using 6 threads for integral computing
 -------------------------------------------------------
 OpenMP Integral computing Module                
 Release: version 1.0, May 2013, Q-Chem Inc. Pittsburgh 
 -------------------------------------------------------
 ---------------------------------------
  Cycle       Energy         DIIS Error
 ---------------------------------------
    1    -422.4130113790      1.41E-04
    2    -422.4134182464      3.43E-05
    3    -422.4134503390      1.43E-05
    4    -422.4134545816      5.77E-06
    5    -422.4134554589      1.64E-06
    6    -422.4134555393      3.36E-07
    7    -422.4134555429      1.20E-07
    8    -422.4134555431      4.49E-08 Convergence criterion met
 ---------------------------------------
 SCF time:  CPU 199.87 s  wall 33.37 s

-----------------------------------------------------------------
 SCF CP correction for fragment 1 out of 2
/home/qwang/software/qchem5.1.2/exe/qcprog.exe /scratch/xuedong/qchem18415/Frg1.input /scratch/xuedong/qchem18415/Frg1BSSE/ > /dev/null 
 SCF CP correction for fragment 2 out of 2
/home/qwang/software/qchem5.1.2/exe/qcprog.exe /scratch/xuedong/qchem18415/Frg2.input /scratch/xuedong/qchem18415/Frg2BSSE/ > /dev/null 
-----------------------------------------------------------------
 Done with counterpoise correction on fragments
-----------------------------------------------------------------

 SCF   energy in the final basis set = -422.41345554
 Total energy in the final basis set = -422.41345554
 
 Components of the MP2 correlation energy:
        aaaa  correlation energy =        -0.0681729404 au
        abab  correlation energy =        -0.4934003966 au
        bbbb  correlation energy =        -0.0681729404 au
        non-Brillouin singles    =        -0.0000000000 au

 Total  MP2   correlation energy =                    -0.62974628 au
        MP2         total energy =                  -423.04320182 au
 
 --------------------------------------------------------------
 
                    Orbital Energies (a.u.)
 --------------------------------------------------------------
 
 Alpha MOs
 -- Occupied --
-68.788 -20.556 -15.550  -6.134  -4.241  -4.241  -4.240  -1.339
 -1.146  -0.729  -0.701  -0.663  -0.574  -0.561  -0.502  -0.499
 -0.485  -0.417
 -- Virtual --
  0.025   0.038   0.042   0.044   0.059   0.065   0.066   0.074
  0.079   0.083   0.127   0.136   0.147   0.155   0.155   0.160
  0.162   0.176   0.181   0.185   0.186   0.199   0.206   0.233
  0.236   0.241   0.248   0.259   0.275   0.281   0.285   0.297
  0.301   0.320   0.335   0.337   0.338   0.353   0.359   0.362
  0.372   0.387   0.393   0.400   0.407   0.418   0.428   0.441
  0.453   0.468   0.481   0.485   0.499   0.511   0.524   0.538
  0.557   0.583   0.597   0.600   0.627   0.635   0.639   0.649
  0.652   0.668   0.675   0.696   0.701   0.714   0.730   0.733
  0.744   0.759   0.761   0.796   0.810   0.811   0.861   0.896
  0.906   0.908   0.924   0.928   0.935   0.945   0.950   0.955
  0.959   0.970   0.977   0.978   0.983   1.001   1.006   1.024
  1.034   1.050   1.057   1.058   1.082   1.095   1.110   1.115
  1.124   1.146   1.152   1.157   1.182   1.186   1.192   1.210
  1.218   1.242   1.260   1.274   1.279   1.292   1.301   1.313
  1.321   1.339   1.351   1.359   1.377   1.385   1.388   1.414
  1.420   1.447   1.451   1.475   1.498   1.528   1.536   1.556
  1.564   1.566   1.571   1.613   1.642   1.687   1.689   1.750
  1.751   1.795   1.797   1.856   1.867   1.894   1.921   1.932
  1.971   2.003   2.020   2.054   2.084   2.098   2.130   2.177
  2.186   2.200   2.222   2.235   2.282   2.291   2.313   2.352
  2.369   2.376   2.398   2.438   2.453   2.461   2.479   2.491
  2.504   2.558   2.614   2.658   2.725   2.756   2.847   2.892
  2.939   2.965   3.115   3.165   3.362   3.580   3.662   3.671
  3.718   3.746   3.759   3.815   3.974   3.988   4.002   4.018
  4.044   4.077   4.091   4.114   4.116   4.144   4.146   4.170
  4.175   4.187   4.231   4.259   4.266   4.274   4.299   4.300
  4.301   4.341   4.369   4.403   4.430   4.437   4.472   4.480
  4.494   4.518   4.546   4.552   4.577   4.590   4.633   4.653
  4.729   4.733   4.778   4.791   4.811   4.817   4.827   4.843
  4.951   4.961   4.986   5.054   5.096   5.138   5.141   5.158
  5.184   5.233   5.303   5.309   5.325   5.377   5.417   5.530
  5.533   5.566   5.700   5.862   5.971   6.040   6.148   6.182
  6.213   6.489   6.548   6.614   6.734   6.739   6.942   7.143
  7.280   7.321   7.329   7.375   7.402   7.649   7.759   7.932
  7.965   8.778   8.825  15.976  16.385
 --------------------------------------------------------------
 
          Ground-State Mulliken Net Atomic Charges

     Atom                 Charge (a.u.)
  ----------------------------------------
      1 O                    -0.497305
      2 H                     0.205438
      3 H                     0.287494
      4 Si                    1.060725
      5 H                    -0.340534
      6 H                    -0.274646
      7 H                    -0.275761
      8 N                    -0.386755
      9 H                     0.111254
     10 H                     0.110090
  ----------------------------------------
  Sum of atomic charges =    -0.000000

 -----------------------------------------------------------------
                    Cartesian Multipole Moments
 -----------------------------------------------------------------
    Charge (ESU x 10^10)
                -0.0000
    Dipole Moment (Debye)
         X      -2.2499      Y      -0.0753      Z       0.0304
       Tot       2.2513
    Quadrupole Moments (Debye-Ang)
        XX     -40.6395     XY       4.9482     YY     -24.1986
        XZ       0.1241     YZ       0.0513     ZZ     -28.3378
    Octopole Moments (Debye-Ang^2)
       XXX     -18.7864    XXY      17.2920    XYY      13.5210
       YYY      -5.4804    XXZ       0.6078    XYZ       0.2755
       YYZ       0.1503    XZZ       3.5861    YZZ      -5.9827
       ZZZ      -0.1423
    Hexadecapole Moments (Debye-Ang^3)
      XXXX    -995.7737   XXXY      62.6505   XXYY    -121.6208
      XYYY      18.2598   YYYY     -97.5563   XXXZ       1.1134
      XXYZ       0.4175   XYYZ       0.0334   YYYZ       0.0379
      XXZZ    -150.7176   XYZZ       6.4808   YYZZ     -24.6417
      XZZZ       0.2147   YZZZ       0.0255   ZZZZ     -57.6266
 -----------------------------------------------------------------

 ---------------------------------------------------------------------
 *                     Fragment's binding energy                     *
 ---------------------------------------------------------------------
    Fragment           E(TOTAL)         E(CP-CORR)           DE(BSSE)
 ---------------------------------------------------------------------
           1     -76.3289361749     -76.3290885134       0.0001523384
           2    -346.7102919547    -346.7104554747       0.0001635200
     Complex    -423.0432018205
 ---------------------------------------------------------------------
  DE, kJ/mol     -10.4330492094      -9.6037531279
 ---------------------------------------------------------------------

Archival summary:
1\1\gm4.localdomain\SP\MP2\BasisUnspecified\i1117\xuedong\WedJul1017:05:032019WedJul1017:05:032019\0\\#,MP2,BasisUnspecified,\\0,1\Si\H,1,1.47668\H,1,1.47675,2,110.794\H,1,1.4825,2,108.319,3,118.454,0\N,1,1.74586,2,107.117,3,-116.477,0\H,5,1.01011,1,116.82,2,173.099,0\H,5,1.01019,1,116.936,2,-55.856,0\H,5,3.04646,1,118.378,2,57.8509,0\O,8,0.968474,5,178.881,1,-42.427,0\H,9,0.958662,8,103.853,5,43.845,0\\HF=-422.413456\MP2=-423.043202\\@

 Total job time:  263.43s(wall), 547.82s(cpu) 
 Wed Jul 10 17:05:03 2019

        *************************************************************
        *                                                           *
        *  Thank you very much for using Q-Chem.  Have a nice day.  *
        *                                                           *
        *************************************************************


