
Running Job 1 of 1 ../qm_inp/SiH3NH2_SiH3NH2_con1.080.qcinp
qchem ../qm_inp/SiH3NH2_SiH3NH2_con1.080.qcinp_21949.0 /scratch/xuedong/qchem21949/ 1
/home/qwang/software/qchem5.1.2/exe/qcprog.exe_s ../qm_inp/SiH3NH2_SiH3NH2_con1.080.qcinp_21949.0 /scratch/xuedong/qchem21949/
Check license passed

                  Welcome to Q-Chem
     A Quantum Leap Into The Future Of Chemistry


 Q-Chem 5.1, Q-Chem, Inc., Pleasanton, CA (2018)

 Yihan Shao,  Zhengting Gan,  E. Epifanovsky,  A. T. B. Gilbert,  M. Wormit,  
 J. Kussmann,  A. W. Lange,  A. Behn,  Jia Deng,  Xintian Feng,  D. Ghosh,  
 M. Goldey,  P. R. Horn,  L. D. Jacobson,  I. Kaliman,  T. Kus,  A. Landau,  
 Jie Liu,  E. I. Proynov,  R. M. Richard,  R. P. Steele,  E. J. Sundstrom,  
 H. L. Woodcock III,  P. M. Zimmerman,  D. Zuev,  B. Albrecht,  E. Alguire,  
 S. A. Baeppler,  D. Barton,  Z. Benda,  Y. A. Bernard,  E. J. Berquist,  
 K. B. Bravaya,  H. Burton,  D. Casanova,  Chun-Min Chang,  Yunqing Chen,  
 A. Chien,  K. D. Closser,  M. P. Coons,  S. Coriani,  S. Dasgupta,  
 A. L. Dempwolff,  M. Diedenhofen,  Hainam Do,  R. G. Edgar,  Po-Tung Fang,  
 S. Faraji,  S. Fatehi,  Qingguo Feng,  K. D. Fenk,  J. Fosso-Tande,  
 J. Gayvert,  Qinghui Ge,  A. Ghysels,  G. Gidofalvi,  J. Gomes,  
 J. Gonthier,  A. Gunina,  D. Hait,  M. W. D. Hanson-Heine,  
 P. H. P. Harbach,  A. W. Hauser,  J. E. Herr,  E. G. Hohenstein,  
 Z. C. Holden,  Kerwin Hui,  B. C. Huynh,  T.-C. Jagau,  Hyunjun Ji,  
 B. Kaduk,  K. Khistyaev,  Jaehoon Kim,  P. Klunzinger,  K. Koh,  
 D. Kosenkov,  L. Koulias,  T. Kowalczyk,  C. M. Krauter,  A. Kunitsa,  
 Ka Un Lao,  A. Laurent,  K. V. Lawler,  Joonho Lee,  D. Lefrancois,  
 S. Lehtola,  D. S. Levine,  Yi-Pei Li,  You-Sheng Lin,  Fenglai Liu,  
 E. Livshits,  A. Luenser,  P. Manohar,  E. Mansoor,  S. F. Manzer,  
 Shan-Ping Mao,  Yuezhi Mao,  N. Mardirossian,  A. V. Marenich,  
 T. Markovich,  L. A. Martinez-Martinez,  S. A. Maurer,  N. J. Mayhall,  
 S. C. McKenzie,  J.-M. Mewes,  A. F. Morrison,  J. W. Mullinax,  K. Nanda,  
 T. S. Nguyen-Beck,  R. Olivares-Amaya,  J. A. Parkhill,  T. M. Perrine,  
 F. Plasser,  P. Pokhilko,  S. Prager,  A. Prociuk,  E. Ramos,  D. R. Rehn,  
 F. Rob,  M. Schneider,  N. Sergueev,  S. M. Sharada,  S. Sharma,  
 D. W. Small,  T. Stauch,  T. Stein,  Yu-Chuan Su,  A. J. W. Thom,  
 A. Tkatchenko,  T. Tsuchimochi,  N. M. Tubman,  L. Vogt,  M. L. Vidal,  
 O. Vydrov,  M. A. Watson,  J. Wenzel,  M. de Wergifosse,  T. A. Wesolowski,  
 A. White,  J. Witte,  A. Yamada,  Jun Yang,  K. Yao,  S. Yeganeh,  
 S. R. Yost,  Zhi-Qiang You,  A. Zech,  Igor Ying Zhang,  Xing Zhang,  
 Yan Zhao,  Ying Zhu,  B. R. Brooks,  G. K. L. Chan,  C. J. Cramer,  
 M. S. Gordon,  W. J. Hehre,  A. Klamt,  M. W. Schmidt,  C. D. Sherrill,  
 D. G. Truhlar,  A. Aspuru-Guzik,  R. Baer,  A. T. Bell,  N. A. Besley,  
 Jeng-Da Chai,  A. E. DePrince, III,  R. A. DiStasio Jr.,  A. Dreuw,  
 B. D. Dunietz,  T. R. Furlani,  Chao-Ping Hsu,  Yousung Jung,  Jing Kong,  
 D. S. Lambrecht,  WanZhen Liang,  C. Ochsenfeld,  V. A. Rassolov,  
 L. V. Slipchenko,  J. E. Subotnik,  T. Van Voorhis,  J. M. Herbert,  
 A. I. Krylov,  P. M. W. Gill,  M. Head-Gordon

 Contributors to earlier versions of Q-Chem not listed above: 
 R. D. Adamson,  B. Austin,  J. Baker,  G. J. O. Beran,  K. Brandhorst,  
 S. T. Brown,  E. F. C. Byrd,  A. K. Chakraborty,  C.-L. Cheng,  
 Siu Hung Chien,  D. M. Chipman,  D. L. Crittenden,  H. Dachsel,  
 R. J. Doerksen,  A. D. Dutoi,  L. Fusti-Molnar,  W. A. Goddard III,  
 A. Golubeva-Zadorozhnaya,  S. R. Gwaltney,  G. Hawkins,  A. Heyden,  
 S. Hirata,  G. Kedziora,  F. J. Keil,  C. Kelley,  Jihan Kim,  R. A. King,  
 R. Z. Khaliullin,  P. P. Korambath,  W. Kurlancheek,  A. M. Lee,  M. S. Lee,  
 S. V. Levchenko,  Ching Yeh Lin,  D. Liotard,  R. C. Lochan,  I. Lotan,  
 P. E. Maslen,  N. Nair,  D. P. O'Neill,  D. Neuhauser,  E. Neuscamman,  
 C. M. Oana,  R. Olson,  B. Peters,  R. Peverati,  P. A. Pieniazek,  
 Y. M. Rhee,  J. Ritchie,  M. A. Rohrdanz,  E. Rosta,  N. J. Russ,  
 H. F. Schaefer III,  N. E. Schultz,  N. Shenvi,  A. C. Simmonett,  A. Sodt,  
 D. Stuck,  K. S. Thanthiriwatte,  V. Vanovschi,  Tao Wang,  A. Warshel,  
 C. F. Williams,  Q. Wu,  X. Xu,  W. Zhang

 Please cite Q-Chem as follows:
 Y. Shao et al., Mol. Phys. 113, 184-215 (2015)
 DOI: 10.1080/00268976.2014.952696

 Q-Chem 5.1.2 for Intel X86 EM64T Linux

 Parts of Q-Chem use Armadillo 8.300.2 (Tropical Shenanigans).
 http://arma.sourceforge.net/

 Q-Chem begins on Tue Jul  2 10:15:17 2019  

Host: 
0

     Scratch files written to /scratch/xuedong/qchem21949//
 Dec218 |scratch|qcdevops|jenkins|workspace|build_RNUM 6581   
Processing $rem in /home/qwang/software/qchem5.1.2/config/preferences.
 MEM_TOTAL  4000 
Core orbitals will be frozen
Input Ideriv = 1
Curr. Ideriv = -1
Max.  Ideriv = 1

Checking the input file for inconsistencies... 	...done.

--------------------------------------------------------------
User input:
--------------------------------------------------------------
$molecule
0 1
--
0 1
Si    -1.603238946    -0.037666475    -0.093158434
H    -1.351489209     0.587977452    -1.416517664
H    -1.362259228    -1.490505278    -0.207462190
H    -0.720166038     0.598793029     0.904338035
N    -3.226075392     0.145065116     0.503430997
H    -3.972557755    -0.323149309     0.014787982
H    -3.532381265     1.064684992     0.778721563
--
0 1
Si     1.845231243     0.235435678     0.246298168
H     3.301029651     0.123969624    -0.026918774
H     1.582821219    -0.398410196     1.554800608
H     1.502545625     1.672285527     0.280353741
N     0.803367791    -0.522181421    -0.919948584
H     0.820532461    -1.528551405    -0.986398374
H     0.764901123    -0.127542978    -1.847178948
$end

$rem
BASIS = aug-cc-pVTZ
JOB_TYPE  =  BSSE
METHOD  =  MP2
SCF_CONVERGENCE  =  8
SCF_MAX_CYCLES  =  200
$end

--------------------------------------------------------------
 ----------------------------------------------------------------
             Standard Nuclear Orientation (Angstroms)
    I     Atom           X                Y                Z
 ----------------------------------------------------------------
    1      Si     -1.2805289092    -0.1287010662    -0.0303527534
    2      H      -0.9638580080    -0.8775835111    -1.2733260150
    3      H      -1.0320432673    -1.0129401079     1.1264762588
    4      H      -0.4493304051     1.0908997902     0.0094023025
    5      N      -2.9314151497     0.4003735804     0.1021710304
    6      H      -3.6518677014    -0.2964689981     0.2050846046
    7      H      -3.2524221522     1.1227992184    -0.5226206163
    8      Si      2.1462693775     0.4513039397     0.0187380820
    9      H       3.6140624193     0.2240311345    -0.0000193684
   10      H       1.8197058517     1.1828302724     1.2601178531
   11      H       1.8002386886     1.2554924296    -1.1715032122
   12      N       1.1650873171    -0.9824389079    -0.0167276649
   13      H       1.1870024966    -1.5906982770     0.7876547130
   14      H       1.1724403503    -1.5403448874    -0.8567646784
 ----------------------------------------------------------------
 Molecular Point Group                 C1    NOp =  1
 Largest Abelian Subgroup              C1    NOp =  1
 Nuclear Repulsion Energy =   228.3657041968 hartrees
 There are       26 alpha and       26 beta electrons
 Requested basis set is aug-cc-pVTZ
 There are 150 shells and 422 basis functions

 Total QAlloc Memory Limit   4000 MB
 Mega-Array Size       188 MB
 MEM_STATIC part       192 MB

                       Distance Matrix (Angstroms)
             Si(  1)   H (  2)   H (  3)   H (  4)   N (  5)   H (  6)
   H (  2)  1.485291
   H (  3)  1.477118  2.404583
   H (  4)  1.476448  2.405215  2.452254
   N (  5)  1.738651  2.719641  2.579587  2.578018
   H (  6)  2.388896  3.122305  2.868061  3.495616  1.007588
   H (  7)  2.386827  3.130913  3.494422  2.853312  1.007625  1.644212
   Si(  8)  3.475883  3.620534  3.670527  2.673258  5.078625  5.849127
   H (  9)  4.907379  4.877727  4.938156  4.154842  6.548650  7.287436
   H ( 10)  3.605119  4.290906  3.601630  2.592540  4.952396  5.765374
   H ( 11)  3.565017  3.492937  4.295150  2.546014  4.974135  5.833442
   N ( 12)  2.590385  2.474357  2.476939  2.627881  4.325233  4.870607
   H ( 13)  2.982496  3.063066  2.317923  3.236392  4.625540  5.042726
   H ( 14)  2.948348  2.275203  3.011835  3.209959  4.639782  5.093987
             H (  7)   Si(  8)   H (  9)   H ( 10)   H ( 11)   N ( 12)
   Si(  8)  5.467161
   H (  9)  6.944747  1.485403
   H ( 10)  5.376639  1.477430  2.393106
   H ( 11)  5.095884  1.477542  2.392957  2.432784
   N ( 12)  4.919588  1.737698  2.730078  2.597547  2.597164
   H ( 13)  5.365481  2.383527  3.131181  2.883747  3.509296  1.008707
   H ( 14)  5.175268  2.383592  3.131861  3.509391  2.882689  1.008452
             H ( 13)
   H ( 14)  1.645255
 
 A cutoff of  1.0D-11 yielded  10667 shell pairs
 There are     84001 function pairs (    107952 Cartesian)
 
 -------------------------------------------------------
 OpenMP Integral Computing Module                       
 Release: version 1.0, May 2013, Q-Chem Inc. Pittsburgh 
 -------------------------------------------------------
 Integral Job Info:
 Integral job number is                      11
 Integral operator is                         1
 short-range coefficients                     0
 long-range coefficients              100000000
 Omega coefficients                           0
 if combine SR and LR in K                    0
 Integral screening is                        0
 Integral computing path is                   2
 max size of driver memory is            800000
 size of driver memory is                776718
 size of scratch memory is             29531563
 max col of scratch BK array              10000
 max len of scratch array in speh3          662
 max len of scratch index in speh4           32
 max int batch size is                      520
 min int batch size is                       52
 fixed nKL is                                31
 max L of basis functions is                  3
 order of int derivative is                   0
 number of shells is                        150
 number of basis is                         478
 number of cartesian basis is               478
 number of contracted shell pairs         10667
 number of primitive shell pairs          31988
 maxK2 (contraction) of shell pair          169
 max number of K2 of shell pair               1
 max number of CS2 of shell pair           1828
 max number of PS2 of shell pair           3133
 mem total for path MDJ                  766812
 -------------------------------------------------------
 Smallest overlap matrix eigenvalue = 1.09E-05

 Scale SEOQF with 1.000000e-01/1.000000e-01/1.000000e-01

 Standard Electronic Orientation quadrupole field applied
 Nucleus-field energy     =     0.0000000082 hartrees
 Guess MOs from converged MOs on fragments

-----------------------------------------------------------------
 SCF on fragment 1 out of 2
/home/qwang/software/qchem5.1.2/exe/qcprog.exe /scratch/xuedong/qchem21949/Frg1.input /scratch/xuedong/qchem21949/Frg1/ > /dev/null 
 SCF on fragment 2 out of 2
/home/qwang/software/qchem5.1.2/exe/qcprog.exe /scratch/xuedong/qchem21949/Frg2.input /scratch/xuedong/qchem21949/Frg2/ > /dev/null 
-----------------------------------------------------------------
 Done with SCF on isolated fragments
-----------------------------------------------------------------

 User-specified occupied guess orbitals will be used
 A restricted Hartree-Fock SCF calculation will be
 performed using Pulay DIIS extrapolation
 SCF converges when DIIS error is below 1.0E-08
 using 6 threads for integral computing
 -------------------------------------------------------
 OpenMP Integral computing Module                
 Release: version 1.0, May 2013, Q-Chem Inc. Pittsburgh 
 -------------------------------------------------------
 ---------------------------------------
  Cycle       Energy         DIIS Error
 ---------------------------------------
    1    -692.6722276120      5.05E-04
    2    -692.6842261908      1.51E-04
    3    -692.6854897041      6.63E-05
    4    -692.6856636475      2.12E-05
    5    -692.6856877736      4.02E-06
    6    -692.6856887581      1.02E-06
    7    -692.6856888173      3.44E-07
    8    -692.6856888221      1.27E-07
    9    -692.6856888229      2.51E-08
   10    -692.6856888230      5.50E-09 Convergence criterion met
 ---------------------------------------
 SCF time:  CPU 1123.06 s  wall 187.16 s

-----------------------------------------------------------------
 SCF CP correction for fragment 1 out of 2
/home/qwang/software/qchem5.1.2/exe/qcprog.exe /scratch/xuedong/qchem21949/Frg1.input /scratch/xuedong/qchem21949/Frg1BSSE/ > /dev/null 
 SCF CP correction for fragment 2 out of 2
/home/qwang/software/qchem5.1.2/exe/qcprog.exe /scratch/xuedong/qchem21949/Frg2.input /scratch/xuedong/qchem21949/Frg2BSSE/ > /dev/null 
-----------------------------------------------------------------
 Done with counterpoise correction on fragments
-----------------------------------------------------------------

 SCF   energy in the final basis set = -692.68568882
 Total energy in the final basis set = -692.68568882
 
 Components of the MP2 correlation energy:
        aaaa  correlation energy =        -0.0737478088 au
        abab  correlation energy =        -0.5857035528 au
        bbbb  correlation energy =        -0.0737478088 au
        non-Brillouin singles    =        -0.0000000000 au

 Total  MP2   correlation energy =                    -0.73319917 au
        MP2         total energy =                  -693.41888799 au
 
 --------------------------------------------------------------
 
                    Orbital Energies (a.u.)
 --------------------------------------------------------------
 
 Alpha MOs
 -- Occupied --
-68.783 -68.764 -15.545 -15.519  -6.129  -6.108  -4.236  -4.236
 -4.235  -4.215  -4.214  -4.214  -1.152  -1.119  -0.730  -0.709
 -0.669  -0.639  -0.566  -0.551  -0.494  -0.480  -0.472  -0.458
 -0.407  -0.384
 -- Virtual --
  0.026   0.035   0.040   0.046   0.053   0.057   0.062   0.068
  0.071   0.076   0.084   0.088   0.091   0.097   0.109   0.113
  0.125   0.137   0.141   0.148   0.151   0.163   0.171   0.175
  0.177   0.180   0.188   0.190   0.194   0.198   0.209   0.220
  0.234   0.242   0.250   0.258   0.259   0.267   0.278   0.279
  0.285   0.291   0.295   0.300   0.308   0.323   0.326   0.330
  0.337   0.342   0.351   0.351   0.365   0.370   0.373   0.377
  0.379   0.396   0.402   0.403   0.409   0.409   0.412   0.416
  0.423   0.426   0.432   0.441   0.465   0.466   0.471   0.479
  0.487   0.494   0.504   0.513   0.518   0.526   0.536   0.541
  0.556   0.565   0.584   0.593   0.607   0.612   0.620   0.623
  0.636   0.644   0.648   0.649   0.652   0.661   0.668   0.684
  0.685   0.693   0.702   0.706   0.715   0.720   0.732   0.737
  0.745   0.756   0.771   0.777   0.790   0.799   0.825   0.837
  0.842   0.862   0.872   0.898   0.910   0.922   0.929   0.936
  0.940   0.947   0.954   0.961   0.967   0.975   0.984   0.997
  1.007   1.016   1.030   1.039   1.051   1.063   1.070   1.073
  1.079   1.085   1.093   1.097   1.111   1.121   1.126   1.137
  1.147   1.155   1.158   1.167   1.174   1.179   1.185   1.190
  1.205   1.214   1.226   1.229   1.240   1.247   1.258   1.266
  1.273   1.280   1.286   1.291   1.299   1.310   1.311   1.321
  1.336   1.352   1.360   1.361   1.376   1.384   1.390   1.398
  1.409   1.414   1.419   1.429   1.436   1.451   1.466   1.472
  1.481   1.489   1.493   1.501   1.515   1.529   1.537   1.545
  1.556   1.559   1.573   1.593   1.600   1.609   1.627   1.643
  1.666   1.699   1.703   1.722   1.727   1.740   1.758   1.769
  1.772   1.791   1.796   1.808   1.821   1.852   1.869   1.888
  1.896   1.917   1.924   1.948   1.969   1.974   1.982   1.993
  2.002   2.027   2.044   2.052   2.089   2.096   2.102   2.113
  2.130   2.140   2.142   2.172   2.191   2.208   2.236   2.252
  2.254   2.262   2.277   2.285   2.299   2.308   2.333   2.343
  2.362   2.372   2.420   2.434   2.450   2.470   2.486   2.493
  2.514   2.538   2.552   2.571   2.594   2.606   2.715   2.744
  2.948   3.079   3.171   3.223   3.233   3.353   3.449   3.516
  3.690   3.732   3.768   3.781   3.797   3.831   3.847   3.860
  3.889   3.946   4.011   4.045   4.064   4.071   4.084   4.099
  4.125   4.129   4.133   4.155   4.157   4.160   4.177   4.180
  4.207   4.212   4.235   4.241   4.246   4.251   4.265   4.279
  4.285   4.296   4.301   4.319   4.326   4.344   4.362   4.373
  4.390   4.405   4.420   4.437   4.461   4.476   4.487   4.512
  4.516   4.539   4.550   4.561   4.582   4.599   4.628   4.638
  4.651   4.657   4.670   4.678   4.732   4.751   4.759   4.773
  4.781   4.799   4.809   4.833   4.838   4.840   4.856   4.883
  4.892   4.933   4.949   4.963   4.983   5.022   5.042   5.068
  5.081   5.106   5.132   5.138   5.191   5.191   5.204   5.222
  5.260   5.283   5.287   5.303   5.363   5.386   5.395   5.444
  5.487   5.549   5.576   5.622   5.644   5.660   5.930   5.954
  5.989   6.011   6.082   6.094   6.180   6.208   6.216   6.229
  6.519   6.624   6.638   6.660   6.762   6.851   7.792   7.846
  9.269   9.420  16.343  16.859
 --------------------------------------------------------------
 
          Ground-State Mulliken Net Atomic Charges

     Atom                 Charge (a.u.)
  ----------------------------------------
      1 Si                    1.393348
      2 H                    -0.320838
      3 H                    -0.266903
      4 H                    -0.217302
      5 N                    -0.798388
      6 H                     0.103575
      7 H                     0.110328
      8 Si                    1.241750
      9 H                    -0.651529
     10 H                    -0.243317
     11 H                    -0.241605
     12 N                    -0.271396
     13 H                     0.076824
     14 H                     0.085452
  ----------------------------------------
  Sum of atomic charges =    -0.000000

 -----------------------------------------------------------------
                    Cartesian Multipole Moments
 -----------------------------------------------------------------
    Charge (ESU x 10^10)
                -0.0000
    Dipole Moment (Debye)
         X       0.4366      Y      -1.4694      Z      -0.7980
       Tot       1.7282
    Quadrupole Moments (Debye-Ang)
        XX     -42.5634     XY      -0.9261     YY     -41.5603
        XZ       2.7928     YZ      -1.7327     ZZ     -44.6973
    Octopole Moments (Debye-Ang^2)
       XXX     -36.5941    XXY      -6.2403    XYY      -1.2892
       YYY      -8.2850    XXZ      -8.6665    XYZ       5.5016
       YYZ      -1.6048    XZZ       2.7879    YZZ      -4.2090
       ZZZ      -0.5109
    Hexadecapole Moments (Debye-Ang^3)
      XXXX   -1053.8938   XXXY       7.5893   XXYY    -194.8971
      XYYY     -18.4876   YYYY    -161.3266   XXXZ      27.3606
      XXYZ     -18.0001   XYYZ       6.1269   YYYZ      -3.0514
      XXZZ    -204.7173   XYZZ     -13.1062   YYZZ     -43.6941
      XZZZ       1.8403   YZZZ      -2.1622   ZZZZ    -106.0235
 -----------------------------------------------------------------

 ---------------------------------------------------------------------
 *                     Fragment's binding energy                     *
 ---------------------------------------------------------------------
    Fragment           E(TOTAL)         E(CP-CORR)           DE(BSSE)
 ---------------------------------------------------------------------
           1    -346.7102810193    -346.7111186597       0.0008376404
           2    -346.7104232947    -346.7114261242       0.0010028294
     Complex    -693.4188879935
 ---------------------------------------------------------------------
  DE, kJ/mol       4.7688061993       9.6010171423
 ---------------------------------------------------------------------

Archival summary:
1\1\mm2.localdomain\SP\MP2\BasisUnspecified\i2210\xuedong\TueJul210:38:242019TueJul210:38:242019\0\\#,MP2,BasisUnspecified,\\0,1\Si\H,1,1.47645\H,1,1.47712,2,112.253\H,1,1.48529,2,108.602,3,-119.994,0\N,1,1.73865,2,106.328,3,115.95,0\H,5,1.00759,1,118.442,2,-172.797,0\H,5,1.00763,1,118.256,2,51.2347,0\H,4,2.2752,1,101.177,2,67.5713,0\N,8,1.00845,4,89.1125,1,-6.51115,0\H,9,1.00871,8,109.299,4,111.586,0\Si,9,1.7377,8,117.992,4,-109.921,0\H,11,1.47743,9,107.51,8,172.161,0\H,11,1.47754,9,107.481,8,52.8015,0\H,11,1.4854,9,115.56,8,-67.4981,0\\HF=-692.685689\MP2=-693.418888\\@

 Total job time:  1387.04s(wall), 3958.06s(cpu) 
 Tue Jul  2 10:38:24 2019

        *************************************************************
        *                                                           *
        *  Thank you very much for using Q-Chem.  Have a nice day.  *
        *                                                           *
        *************************************************************


