
Running Job 1 of 1 ../qm_inp/SiH3NH2_water.con2.200.qcinp
qchem ../qm_inp/SiH3NH2_water.con2.200.qcinp_35612.0 /scratch/xuedong/qchem35612/ 1
/home/qwang/software/qchem5.1.2/exe/qcprog.exe_s ../qm_inp/SiH3NH2_water.con2.200.qcinp_35612.0 /scratch/xuedong/qchem35612/
Check license passed

                  Welcome to Q-Chem
     A Quantum Leap Into The Future Of Chemistry


 Q-Chem 5.1, Q-Chem, Inc., Pleasanton, CA (2018)

 Yihan Shao,  Zhengting Gan,  E. Epifanovsky,  A. T. B. Gilbert,  M. Wormit,  
 J. Kussmann,  A. W. Lange,  A. Behn,  Jia Deng,  Xintian Feng,  D. Ghosh,  
 M. Goldey,  P. R. Horn,  L. D. Jacobson,  I. Kaliman,  T. Kus,  A. Landau,  
 Jie Liu,  E. I. Proynov,  R. M. Richard,  R. P. Steele,  E. J. Sundstrom,  
 H. L. Woodcock III,  P. M. Zimmerman,  D. Zuev,  B. Albrecht,  E. Alguire,  
 S. A. Baeppler,  D. Barton,  Z. Benda,  Y. A. Bernard,  E. J. Berquist,  
 K. B. Bravaya,  H. Burton,  D. Casanova,  Chun-Min Chang,  Yunqing Chen,  
 A. Chien,  K. D. Closser,  M. P. Coons,  S. Coriani,  S. Dasgupta,  
 A. L. Dempwolff,  M. Diedenhofen,  Hainam Do,  R. G. Edgar,  Po-Tung Fang,  
 S. Faraji,  S. Fatehi,  Qingguo Feng,  K. D. Fenk,  J. Fosso-Tande,  
 J. Gayvert,  Qinghui Ge,  A. Ghysels,  G. Gidofalvi,  J. Gomes,  
 J. Gonthier,  A. Gunina,  D. Hait,  M. W. D. Hanson-Heine,  
 P. H. P. Harbach,  A. W. Hauser,  J. E. Herr,  E. G. Hohenstein,  
 Z. C. Holden,  Kerwin Hui,  B. C. Huynh,  T.-C. Jagau,  Hyunjun Ji,  
 B. Kaduk,  K. Khistyaev,  Jaehoon Kim,  P. Klunzinger,  K. Koh,  
 D. Kosenkov,  L. Koulias,  T. Kowalczyk,  C. M. Krauter,  A. Kunitsa,  
 Ka Un Lao,  A. Laurent,  K. V. Lawler,  Joonho Lee,  D. Lefrancois,  
 S. Lehtola,  D. S. Levine,  Yi-Pei Li,  You-Sheng Lin,  Fenglai Liu,  
 E. Livshits,  A. Luenser,  P. Manohar,  E. Mansoor,  S. F. Manzer,  
 Shan-Ping Mao,  Yuezhi Mao,  N. Mardirossian,  A. V. Marenich,  
 T. Markovich,  L. A. Martinez-Martinez,  S. A. Maurer,  N. J. Mayhall,  
 S. C. McKenzie,  J.-M. Mewes,  A. F. Morrison,  J. W. Mullinax,  K. Nanda,  
 T. S. Nguyen-Beck,  R. Olivares-Amaya,  J. A. Parkhill,  T. M. Perrine,  
 F. Plasser,  P. Pokhilko,  S. Prager,  A. Prociuk,  E. Ramos,  D. R. Rehn,  
 F. Rob,  M. Schneider,  N. Sergueev,  S. M. Sharada,  S. Sharma,  
 D. W. Small,  T. Stauch,  T. Stein,  Yu-Chuan Su,  A. J. W. Thom,  
 A. Tkatchenko,  T. Tsuchimochi,  N. M. Tubman,  L. Vogt,  M. L. Vidal,  
 O. Vydrov,  M. A. Watson,  J. Wenzel,  M. de Wergifosse,  T. A. Wesolowski,  
 A. White,  J. Witte,  A. Yamada,  Jun Yang,  K. Yao,  S. Yeganeh,  
 S. R. Yost,  Zhi-Qiang You,  A. Zech,  Igor Ying Zhang,  Xing Zhang,  
 Yan Zhao,  Ying Zhu,  B. R. Brooks,  G. K. L. Chan,  C. J. Cramer,  
 M. S. Gordon,  W. J. Hehre,  A. Klamt,  M. W. Schmidt,  C. D. Sherrill,  
 D. G. Truhlar,  A. Aspuru-Guzik,  R. Baer,  A. T. Bell,  N. A. Besley,  
 Jeng-Da Chai,  A. E. DePrince, III,  R. A. DiStasio Jr.,  A. Dreuw,  
 B. D. Dunietz,  T. R. Furlani,  Chao-Ping Hsu,  Yousung Jung,  Jing Kong,  
 D. S. Lambrecht,  WanZhen Liang,  C. Ochsenfeld,  V. A. Rassolov,  
 L. V. Slipchenko,  J. E. Subotnik,  T. Van Voorhis,  J. M. Herbert,  
 A. I. Krylov,  P. M. W. Gill,  M. Head-Gordon

 Contributors to earlier versions of Q-Chem not listed above: 
 R. D. Adamson,  B. Austin,  J. Baker,  G. J. O. Beran,  K. Brandhorst,  
 S. T. Brown,  E. F. C. Byrd,  A. K. Chakraborty,  C.-L. Cheng,  
 Siu Hung Chien,  D. M. Chipman,  D. L. Crittenden,  H. Dachsel,  
 R. J. Doerksen,  A. D. Dutoi,  L. Fusti-Molnar,  W. A. Goddard III,  
 A. Golubeva-Zadorozhnaya,  S. R. Gwaltney,  G. Hawkins,  A. Heyden,  
 S. Hirata,  G. Kedziora,  F. J. Keil,  C. Kelley,  Jihan Kim,  R. A. King,  
 R. Z. Khaliullin,  P. P. Korambath,  W. Kurlancheek,  A. M. Lee,  M. S. Lee,  
 S. V. Levchenko,  Ching Yeh Lin,  D. Liotard,  R. C. Lochan,  I. Lotan,  
 P. E. Maslen,  N. Nair,  D. P. O'Neill,  D. Neuhauser,  E. Neuscamman,  
 C. M. Oana,  R. Olson,  B. Peters,  R. Peverati,  P. A. Pieniazek,  
 Y. M. Rhee,  J. Ritchie,  M. A. Rohrdanz,  E. Rosta,  N. J. Russ,  
 H. F. Schaefer III,  N. E. Schultz,  N. Shenvi,  A. C. Simmonett,  A. Sodt,  
 D. Stuck,  K. S. Thanthiriwatte,  V. Vanovschi,  Tao Wang,  A. Warshel,  
 C. F. Williams,  Q. Wu,  X. Xu,  W. Zhang

 Please cite Q-Chem as follows:
 Y. Shao et al., Mol. Phys. 113, 184-215 (2015)
 DOI: 10.1080/00268976.2014.952696

 Q-Chem 5.1.2 for Intel X86 EM64T Linux

 Parts of Q-Chem use Armadillo 8.300.2 (Tropical Shenanigans).
 http://arma.sourceforge.net/

 Q-Chem begins on Thu Jul 11 10:04:10 2019  

Host: 
0

     Scratch files written to /scratch/xuedong/qchem35612//
 Dec218 |scratch|qcdevops|jenkins|workspace|build_RNUM 6581   
Processing $rem in /home/qwang/software/qchem5.1.2/config/preferences.
 MEM_TOTAL  4000 
Core orbitals will be frozen
Input Ideriv = 1
Curr. Ideriv = -1
Max.  Ideriv = 1

Checking the input file for inconsistencies... 	...done.

--------------------------------------------------------------
User input:
--------------------------------------------------------------
$molecule
0 1
--
0 1
O     2.727262800     0.140250979     0.206246615
H     2.747771752     1.047748175    -0.107062323
H     2.825602485    -0.377966203    -0.596211209
--
0 1
Si    -3.109186739    -0.158153355     0.149113818
H    -2.688095087    -0.488816325     1.529835559
H    -2.647927957     1.209637367    -0.171506147
H    -2.528091178    -1.152223463    -0.777679327
N    -4.824501852    -0.174345170    -0.134004961
H    -5.387896149     0.521003616     0.329486112
H    -5.300158098    -1.062191073    -0.098819352
$end

$rem
BASIS = aug-cc-pVTZ
JOB_TYPE  =  BSSE
METHOD  =  MP2
SCF_CONVERGENCE  =  7
SCF_MAX_CYCLES  =  200
$end

--------------------------------------------------------------
 ----------------------------------------------------------------
             Standard Nuclear Orientation (Angstroms)
    I     Atom           X                Y                Z
 ----------------------------------------------------------------
    1      O       4.6347731265    -0.0057728561     0.0843515523
    2      H       4.6995757267     0.7734619296    -0.4730783000
    3      H       4.6978767477    -0.7344436080    -0.5379146037
    4      Si     -1.2095745535     0.0014284685     0.0834239745
    5      H      -0.7925989124     0.0534184198     1.5034511098
    6      H      -0.6806540262     1.1960319664    -0.6090887286
    7      H      -0.6905185669    -1.2437001245    -0.5207520213
    8      N      -2.9261281261    -0.0033863814    -0.1925198680
    9      H      -3.4477463862     0.8235643393     0.0520490161
   10      H      -3.4471789635    -0.8184439636     0.0902245423
 ----------------------------------------------------------------
 Molecular Point Group                 C1    NOp =  1
 Largest Abelian Subgroup              C1    NOp =  1
 Nuclear Repulsion Energy =    95.4626048540 hartrees
 There are       18 alpha and       18 beta electrons
 Requested basis set is aug-cc-pVTZ
 There are 107 shells and 303 basis functions

 Total QAlloc Memory Limit   4000 MB
 Mega-Array Size       188 MB
 MEM_STATIC part       192 MB

                       Distance Matrix (Angstroms)
             O (  1)   H (  2)   H (  3)   Si(  4)   H (  5)   H (  6)
   H (  2)  0.960278
   H (  3)  0.960291  1.509300
   Si(  4)  5.844352  5.985298  5.985445
   H (  5)  5.610144  5.881251  5.910433  1.480895
   H (  6)  5.493538  5.398512  5.714927  1.478651  2.404355
   H (  7)  5.500668  5.755374  5.412434  1.478105  2.406312  2.441351
   N (  8)  7.565969  7.670304  7.666759  1.738598  2.726076  2.579591
   H (  9)  8.125021  8.164382  8.314242  2.384597  3.122419  2.869257
   H ( 10)  8.122710  8.319921  8.169672  2.383088  3.131158  3.492966
             H (  7)   N (  8)   H (  9)
   N (  8)  2.577608
   H (  9)  3.493421  1.007843
   H ( 10)  2.855400  1.007848  1.642452
 
 A cutoff of  1.0D-10 yielded   4609 shell pairs
 There are     35247 function pairs (     45079 Cartesian)
 
 -------------------------------------------------------
 OpenMP Integral Computing Module                       
 Release: version 1.0, May 2013, Q-Chem Inc. Pittsburgh 
 -------------------------------------------------------
 Integral Job Info:
 Integral job number is                      11
 Integral operator is                         1
 short-range coefficients                     0
 long-range coefficients              100000000
 Omega coefficients                           0
 if combine SR and LR in K                    0
 Integral screening is                        0
 Integral computing path is                   2
 max size of driver memory is            800000
 size of driver memory is                776718
 size of scratch memory is             29531563
 max col of scratch BK array              10000
 max len of scratch array in speh3          662
 max len of scratch index in speh4           32
 max int batch size is                      520
 min int batch size is                       52
 fixed nKL is                                31
 max L of basis functions is                  3
 order of int derivative is                   0
 number of shells is                        107
 number of basis is                         344
 number of cartesian basis is               344
 number of contracted shell pairs          4609
 number of primitive shell pairs          13456
 maxK2 (contraction) of shell pair          169
 max number of K2 of shell pair               1
 max number of CS2 of shell pair            835
 max number of PS2 of shell pair           1014
 mem total for path MDJ                  615388
 -------------------------------------------------------
 Smallest overlap matrix eigenvalue = 2.11E-05

 Scale SEOQF with 1.000000e-01/1.000000e-01/1.000000e-01

 Standard Electronic Orientation quadrupole field applied
 Nucleus-field energy     =     0.0000000115 hartrees
 Guess MOs from converged MOs on fragments

-----------------------------------------------------------------
 SCF on fragment 1 out of 2
/home/qwang/software/qchem5.1.2/exe/qcprog.exe /scratch/xuedong/qchem35612/Frg1.input /scratch/xuedong/qchem35612/Frg1/ > /dev/null 
 SCF on fragment 2 out of 2
/home/qwang/software/qchem5.1.2/exe/qcprog.exe /scratch/xuedong/qchem35612/Frg2.input /scratch/xuedong/qchem35612/Frg2/ > /dev/null 
-----------------------------------------------------------------
 Done with SCF on isolated fragments
-----------------------------------------------------------------

 User-specified occupied guess orbitals will be used
 A restricted Hartree-Fock SCF calculation will be
 performed using Pulay DIIS extrapolation
 SCF converges when DIIS error is below 1.0E-07
 using 6 threads for integral computing
 -------------------------------------------------------
 OpenMP Integral computing Module                
 Release: version 1.0, May 2013, Q-Chem Inc. Pittsburgh 
 -------------------------------------------------------
 ---------------------------------------
  Cycle       Energy         DIIS Error
 ---------------------------------------
    1    -422.4108500709      2.87E-05
    2    -422.4108690870      4.91E-06
    3    -422.4108698037      1.74E-06
    4    -422.4108698619      7.29E-07
    5    -422.4108698733      1.68E-07
    6    -422.4108698742      9.46E-08 Convergence criterion met
 ---------------------------------------
 SCF time:  CPU 112.90 s  wall 18.87 s

-----------------------------------------------------------------
 SCF CP correction for fragment 1 out of 2
/home/qwang/software/qchem5.1.2/exe/qcprog.exe /scratch/xuedong/qchem35612/Frg1.input /scratch/xuedong/qchem35612/Frg1BSSE/ > /dev/null 
 SCF CP correction for fragment 2 out of 2
/home/qwang/software/qchem5.1.2/exe/qcprog.exe /scratch/xuedong/qchem35612/Frg2.input /scratch/xuedong/qchem35612/Frg2BSSE/ > /dev/null 
-----------------------------------------------------------------
 Done with counterpoise correction on fragments
-----------------------------------------------------------------

 SCF   energy in the final basis set = -422.41086987
 Total energy in the final basis set = -422.41086987
 
 Components of the MP2 correlation energy:
        aaaa  correlation energy =        -0.0679541339 au
        abab  correlation energy =        -0.4926754214 au
        bbbb  correlation energy =        -0.0679541339 au
        non-Brillouin singles    =        -0.0000000000 au

 Total  MP2   correlation energy =                    -0.62858369 au
        MP2         total energy =                  -423.03945356 au
 
 --------------------------------------------------------------
 
                    Orbital Energies (a.u.)
 --------------------------------------------------------------
 
 Alpha MOs
 -- Occupied --
-68.777 -20.567 -15.535  -6.123  -4.230  -4.230  -4.229  -1.352
 -1.133  -0.719  -0.714  -0.652  -0.585  -0.550  -0.510  -0.491
 -0.475  -0.402
 -- Virtual --
  0.028   0.031   0.044   0.051   0.055   0.060   0.074   0.074
  0.079   0.081   0.130   0.134   0.140   0.152   0.163   0.171
  0.174   0.174   0.176   0.179   0.195   0.196   0.206   0.228
  0.231   0.239   0.251   0.255   0.264   0.266   0.269   0.277
  0.294   0.298   0.311   0.322   0.334   0.355   0.357   0.358
  0.379   0.382   0.385   0.393   0.395   0.409   0.411   0.424
  0.443   0.461   0.464   0.471   0.478   0.495   0.499   0.530
  0.537   0.566   0.589   0.602   0.603   0.614   0.635   0.648
  0.658   0.659   0.665   0.674   0.683   0.691   0.720   0.731
  0.735   0.739   0.743   0.757   0.812   0.813   0.835   0.857
  0.883   0.905   0.910   0.916   0.919   0.927   0.933   0.939
  0.939   0.954   0.971   0.976   0.979   0.980   0.991   1.016
  1.030   1.033   1.051   1.063   1.067   1.076   1.095   1.097
  1.109   1.117   1.126   1.130   1.139   1.157   1.171   1.180
  1.185   1.194   1.205   1.222   1.226   1.239   1.263   1.274
  1.292   1.307   1.333   1.340   1.350   1.352   1.383   1.385
  1.401   1.419   1.435   1.458   1.484   1.498   1.522   1.528
  1.534   1.541   1.545   1.555   1.584   1.594   1.687   1.744
  1.752   1.788   1.805   1.827   1.829   1.868   1.907   1.943
  1.960   1.986   2.006   2.014   2.097   2.097   2.122   2.136
  2.161   2.197   2.198   2.231   2.244   2.277   2.298   2.303
  2.318   2.332   2.365   2.388   2.423   2.440   2.446   2.451
  2.479   2.485   2.498   2.677   2.689   2.714   2.783   2.812
  2.878   2.896   3.113   3.124   3.351   3.540   3.657   3.663
  3.679   3.740   3.750   3.766   3.961   3.989   4.000   4.015
  4.022   4.087   4.096   4.104   4.121   4.128   4.154   4.161
  4.184   4.187   4.231   4.232   4.253   4.266   4.282   4.285
  4.301   4.354   4.377   4.379   4.389   4.410   4.453   4.466
  4.500   4.502   4.523   4.544   4.554   4.584   4.634   4.665
  4.721   4.737   4.746   4.770   4.793   4.813   4.829   4.850
  4.859   4.944   4.977   5.058   5.124   5.131   5.150   5.154
  5.158   5.206   5.248   5.299   5.322   5.331   5.412   5.521
  5.528   5.565   5.661   5.883   5.971   6.045   6.174   6.188
  6.196   6.471   6.513   6.623   6.710   6.731   6.909   7.139
  7.263   7.293   7.318   7.346   7.357   7.536   7.754   7.892
  7.930   8.676   8.810  15.757  16.234
 --------------------------------------------------------------
 
          Ground-State Mulliken Net Atomic Charges

     Atom                 Charge (a.u.)
  ----------------------------------------
      1 O                    -0.446102
      2 H                     0.222985
      3 H                     0.223080
      4 Si                    1.045597
      5 H                    -0.307291
      6 H                    -0.269733
      7 H                    -0.267835
      8 N                    -0.453759
      9 H                     0.126398
     10 H                     0.126659
  ----------------------------------------
  Sum of atomic charges =    -0.000000

 -----------------------------------------------------------------
                    Cartesian Multipole Moments
 -----------------------------------------------------------------
    Charge (ESU x 10^10)
                -0.0000
    Dipole Moment (Debye)
         X      -0.5689      Y       0.1026      Z      -1.0590
       Tot       1.2065
    Quadrupole Moments (Debye-Ang)
        XX     -23.1515     XY       0.3206     YY     -25.1327
        XZ     -12.7329     YZ       0.0010     ZZ     -30.4975
    Octopole Moments (Debye-Ang^2)
       XXX       1.1077    XXY       2.2174    XYY      10.8671
       YYY       0.3204    XXZ     -33.4371    XYZ       0.6677
       YYZ      -0.2079    XZZ      14.2674    YZZ      -0.2210
       ZZZ      -2.4802
    Hexadecapole Moments (Debye-Ang^3)
      XXXX   -1327.5480   XXXY       8.4048   XXYY    -164.5139
      XYYY       0.5311   YYYY     -57.5078   XXXZ    -250.9369
      XXYZ       0.8797   XYYZ      -9.7652   YYYZ      -0.0364
      XXZZ    -243.6943   XYZZ      -0.2377   YYZZ     -19.3470
      XZZZ      -8.4081   YZZZ       0.0102   ZZZZ     -62.0976
 -----------------------------------------------------------------

 ---------------------------------------------------------------------
 *                     Fragment's binding energy                     *
 ---------------------------------------------------------------------
    Fragment           E(TOTAL)         E(CP-CORR)           DE(BSSE)
 ---------------------------------------------------------------------
           1     -76.3289827153     -76.3290066481       0.0000239328
           2    -346.7102825913    -346.7103007073       0.0000181160
     Complex    -423.0394535634
 ---------------------------------------------------------------------
  DE, kJ/mol      -0.4942740126      -0.3838736569
 ---------------------------------------------------------------------

Archival summary:
1\1\gm4.localdomain\SP\MP2\BasisUnspecified\i1117\xuedong\ThuJul1110:07:282019ThuJul1110:07:282019\0\\#,MP2,BasisUnspecified,\\0,1\Si\H,1,1.4781\H,1,1.47865,2,111.316\H,1,1.48089,2,108.823,3,-119.731,0\N,1,1.7386,2,106.231,3,115.33,0\H,5,1.00784,1,118.048,2,-172.801,0\H,5,1.00785,1,117.914,2,52.5528,0\H,3,5.39851,1,106.347,2,-55.3755,0\O,8,0.960278,3,90.6239,1,-5.7704,0\H,9,0.960291,8,103.601,3,96.2614,0\\HF=-422.41087\MP2=-423.039454\\@

 Total job time:  198.51s(wall), 364.11s(cpu) 
 Thu Jul 11 10:07:28 2019

        *************************************************************
        *                                                           *
        *  Thank you very much for using Q-Chem.  Have a nice day.  *
        *                                                           *
        *************************************************************


