
Running Job 1 of 1 ../qm_inp/SiH3CH3_water.con1.110.qcinp
qchem ../qm_inp/SiH3CH3_water.con1.110.qcinp_12157.0 /scratch/xuedong/qchem12157/ 1
/home/qwang/software/qchem5.1.2/exe/qcprog.exe_s ../qm_inp/SiH3CH3_water.con1.110.qcinp_12157.0 /scratch/xuedong/qchem12157/
Check license passed

                  Welcome to Q-Chem
     A Quantum Leap Into The Future Of Chemistry


 Q-Chem 5.1, Q-Chem, Inc., Pleasanton, CA (2018)

 Yihan Shao,  Zhengting Gan,  E. Epifanovsky,  A. T. B. Gilbert,  M. Wormit,  
 J. Kussmann,  A. W. Lange,  A. Behn,  Jia Deng,  Xintian Feng,  D. Ghosh,  
 M. Goldey,  P. R. Horn,  L. D. Jacobson,  I. Kaliman,  T. Kus,  A. Landau,  
 Jie Liu,  E. I. Proynov,  R. M. Richard,  R. P. Steele,  E. J. Sundstrom,  
 H. L. Woodcock III,  P. M. Zimmerman,  D. Zuev,  B. Albrecht,  E. Alguire,  
 S. A. Baeppler,  D. Barton,  Z. Benda,  Y. A. Bernard,  E. J. Berquist,  
 K. B. Bravaya,  H. Burton,  D. Casanova,  Chun-Min Chang,  Yunqing Chen,  
 A. Chien,  K. D. Closser,  M. P. Coons,  S. Coriani,  S. Dasgupta,  
 A. L. Dempwolff,  M. Diedenhofen,  Hainam Do,  R. G. Edgar,  Po-Tung Fang,  
 S. Faraji,  S. Fatehi,  Qingguo Feng,  K. D. Fenk,  J. Fosso-Tande,  
 J. Gayvert,  Qinghui Ge,  A. Ghysels,  G. Gidofalvi,  J. Gomes,  
 J. Gonthier,  A. Gunina,  D. Hait,  M. W. D. Hanson-Heine,  
 P. H. P. Harbach,  A. W. Hauser,  J. E. Herr,  E. G. Hohenstein,  
 Z. C. Holden,  Kerwin Hui,  B. C. Huynh,  T.-C. Jagau,  Hyunjun Ji,  
 B. Kaduk,  K. Khistyaev,  Jaehoon Kim,  P. Klunzinger,  K. Koh,  
 D. Kosenkov,  L. Koulias,  T. Kowalczyk,  C. M. Krauter,  A. Kunitsa,  
 Ka Un Lao,  A. Laurent,  K. V. Lawler,  Joonho Lee,  D. Lefrancois,  
 S. Lehtola,  D. S. Levine,  Yi-Pei Li,  You-Sheng Lin,  Fenglai Liu,  
 E. Livshits,  A. Luenser,  P. Manohar,  E. Mansoor,  S. F. Manzer,  
 Shan-Ping Mao,  Yuezhi Mao,  N. Mardirossian,  A. V. Marenich,  
 T. Markovich,  L. A. Martinez-Martinez,  S. A. Maurer,  N. J. Mayhall,  
 S. C. McKenzie,  J.-M. Mewes,  A. F. Morrison,  J. W. Mullinax,  K. Nanda,  
 T. S. Nguyen-Beck,  R. Olivares-Amaya,  J. A. Parkhill,  T. M. Perrine,  
 F. Plasser,  P. Pokhilko,  S. Prager,  A. Prociuk,  E. Ramos,  D. R. Rehn,  
 F. Rob,  M. Schneider,  N. Sergueev,  S. M. Sharada,  S. Sharma,  
 D. W. Small,  T. Stauch,  T. Stein,  Yu-Chuan Su,  A. J. W. Thom,  
 A. Tkatchenko,  T. Tsuchimochi,  N. M. Tubman,  L. Vogt,  M. L. Vidal,  
 O. Vydrov,  M. A. Watson,  J. Wenzel,  M. de Wergifosse,  T. A. Wesolowski,  
 A. White,  J. Witte,  A. Yamada,  Jun Yang,  K. Yao,  S. Yeganeh,  
 S. R. Yost,  Zhi-Qiang You,  A. Zech,  Igor Ying Zhang,  Xing Zhang,  
 Yan Zhao,  Ying Zhu,  B. R. Brooks,  G. K. L. Chan,  C. J. Cramer,  
 M. S. Gordon,  W. J. Hehre,  A. Klamt,  M. W. Schmidt,  C. D. Sherrill,  
 D. G. Truhlar,  A. Aspuru-Guzik,  R. Baer,  A. T. Bell,  N. A. Besley,  
 Jeng-Da Chai,  A. E. DePrince, III,  R. A. DiStasio Jr.,  A. Dreuw,  
 B. D. Dunietz,  T. R. Furlani,  Chao-Ping Hsu,  Yousung Jung,  Jing Kong,  
 D. S. Lambrecht,  WanZhen Liang,  C. Ochsenfeld,  V. A. Rassolov,  
 L. V. Slipchenko,  J. E. Subotnik,  T. Van Voorhis,  J. M. Herbert,  
 A. I. Krylov,  P. M. W. Gill,  M. Head-Gordon

 Contributors to earlier versions of Q-Chem not listed above: 
 R. D. Adamson,  B. Austin,  J. Baker,  G. J. O. Beran,  K. Brandhorst,  
 S. T. Brown,  E. F. C. Byrd,  A. K. Chakraborty,  C.-L. Cheng,  
 Siu Hung Chien,  D. M. Chipman,  D. L. Crittenden,  H. Dachsel,  
 R. J. Doerksen,  A. D. Dutoi,  L. Fusti-Molnar,  W. A. Goddard III,  
 A. Golubeva-Zadorozhnaya,  S. R. Gwaltney,  G. Hawkins,  A. Heyden,  
 S. Hirata,  G. Kedziora,  F. J. Keil,  C. Kelley,  Jihan Kim,  R. A. King,  
 R. Z. Khaliullin,  P. P. Korambath,  W. Kurlancheek,  A. M. Lee,  M. S. Lee,  
 S. V. Levchenko,  Ching Yeh Lin,  D. Liotard,  R. C. Lochan,  I. Lotan,  
 P. E. Maslen,  N. Nair,  D. P. O'Neill,  D. Neuhauser,  E. Neuscamman,  
 C. M. Oana,  R. Olson,  B. Peters,  R. Peverati,  P. A. Pieniazek,  
 Y. M. Rhee,  J. Ritchie,  M. A. Rohrdanz,  E. Rosta,  N. J. Russ,  
 H. F. Schaefer III,  N. E. Schultz,  N. Shenvi,  A. C. Simmonett,  A. Sodt,  
 D. Stuck,  K. S. Thanthiriwatte,  V. Vanovschi,  Tao Wang,  A. Warshel,  
 C. F. Williams,  Q. Wu,  X. Xu,  W. Zhang

 Please cite Q-Chem as follows:
 Y. Shao et al., Mol. Phys. 113, 184-215 (2015)
 DOI: 10.1080/00268976.2014.952696

 Q-Chem 5.1.2 for Intel X86 EM64T Linux

 Parts of Q-Chem use Armadillo 8.300.2 (Tropical Shenanigans).
 http://arma.sourceforge.net/

 Q-Chem begins on Wed Jul 10 11:40:24 2019  

Host: 
0

     Scratch files written to /scratch/xuedong/qchem12157//
 Dec218 |scratch|qcdevops|jenkins|workspace|build_RNUM 6581   
Processing $rem in /home/qwang/software/qchem5.1.2/config/preferences.
 MEM_TOTAL  4000 
Core orbitals will be frozen
Input Ideriv = 1
Curr. Ideriv = -1
Max.  Ideriv = 1

Checking the input file for inconsistencies... 	...done.

--------------------------------------------------------------
User input:
--------------------------------------------------------------
$molecule
0 1
--
0 1
O     3.417192278    -0.078854989     0.000000000
H     3.621539415     0.858418795     0.000000000
H     2.457629173    -0.098605673     0.000000000
--
0 1
Si    -2.158993570    -0.028570328     0.000000000
H    -2.637772855    -0.745080696     1.203009641
H    -2.637772855    -0.745080696    -1.203009641
H    -2.733820825     1.335464662     0.000000000
C    -0.279421601     0.058001755     0.000000000
H     0.077937263     0.582315872    -0.885246536
H     0.140536555    -0.947394915     0.000000000
H     0.077937263     0.582315872     0.885246536
$end

$rem
BASIS = aug-cc-pVTZ
JOB_TYPE  =  BSSE
METHOD  =  MP2
SCF_CONVERGENCE  =  7
SCF_MAX_CYCLES  =  200
$end

--------------------------------------------------------------
 ----------------------------------------------------------------
             Standard Nuclear Orientation (Angstroms)
    I     Atom           X                Y                Z
 ----------------------------------------------------------------
    1      O       3.5884892380    -0.1149969245    -0.0000000000
    2      H       3.8012543857     0.8204018624     0.0000000000
    3      H       2.6287873491    -0.1261201562    -0.0000000000
    4      Si     -1.9870191933    -0.0145833286    -0.0000000000
    5      H      -2.4722206936    -0.7267604241     1.2030096410
    6      H      -2.4722206936    -0.7267604241    -1.2030096410
    7      H      -2.5495602851     1.3545643431     0.0000000000
    8      C      -0.1067448832     0.0550875478     0.0000000000
    9      H       0.2553132222     0.5761677520    -0.8852465360
   10      H       0.3041575947    -0.9540439950    -0.0000000000
   11      H       0.2553132222     0.5761677520     0.8852465360
 ----------------------------------------------------------------
 Molecular Point Group                 Cs    NOp =  2
 Largest Abelian Subgroup              Cs    NOp =  2
 Nuclear Repulsion Energy =   101.5961081232 hartrees
 There are       18 alpha and       18 beta electrons
 Requested basis set is aug-cc-pVTZ
 There are 116 shells and 326 basis functions

 Total QAlloc Memory Limit   4000 MB
 Mega-Array Size       188 MB
 MEM_STATIC part       192 MB

                       Distance Matrix (Angstroms)
             O (  1)   H (  2)   H (  3)   Si(  4)   H (  5)   H (  6)
   H (  2)  0.959291
   H (  3)  0.959766  1.506845
   Si(  4)  5.576413  5.848189  4.617154
   H (  5)  6.209162  6.572475  5.275252  1.479814
   H (  6)  6.209162  6.572475  5.275252  1.479814  2.406019
   H (  7)  6.311518  6.373239  5.385881  1.480209  2.405229  2.405229
   C (  8)  3.699146  3.982231  2.741527  1.881565  2.766585  2.766585
   H (  9)  3.517305  3.662924  2.628735  2.482076  3.673946  3.039414
   H ( 10)  3.389813  3.921523  2.467663  2.476303  3.034331  3.034331
   H ( 11)  3.517305  3.662924  2.628735  2.482076  3.039414  3.673946
             H (  7)   C (  8)   H (  9)   H ( 10)
   C (  8)  2.766945
   H (  9)  3.042512  1.089161
   H ( 10)  3.670610  1.089581  1.768501
   H ( 11)  3.042512  1.089161  1.770493  1.768501
 
 A cutoff of  1.0D-10 yielded   6177 shell pairs
 There are     47877 function pairs (     61159 Cartesian)
 
 -------------------------------------------------------
 OpenMP Integral Computing Module                       
 Release: version 1.0, May 2013, Q-Chem Inc. Pittsburgh 
 -------------------------------------------------------
 Integral Job Info:
 Integral job number is                      11
 Integral operator is                         1
 short-range coefficients                     0
 long-range coefficients              100000000
 Omega coefficients                           0
 if combine SR and LR in K                    0
 Integral screening is                        0
 Integral computing path is                   2
 max size of driver memory is            800000
 size of driver memory is                776718
 size of scratch memory is             29531563
 max col of scratch BK array              10000
 max len of scratch array in speh3          662
 max len of scratch index in speh4           32
 max int batch size is                      520
 min int batch size is                       52
 fixed nKL is                                31
 max L of basis functions is                  3
 order of int derivative is                   0
 number of shells is                        116
 number of basis is                         369
 number of cartesian basis is               369
 number of contracted shell pairs          6177
 number of primitive shell pairs          16504
 maxK2 (contraction) of shell pair          169
 max number of K2 of shell pair               1
 max number of CS2 of shell pair           1104
 max number of PS2 of shell pair           1131
 mem total for path MDJ                  660108
 -------------------------------------------------------
 Smallest overlap matrix eigenvalue = 1.23E-05

 Scale SEOQF with 1.000000e-01/1.000000e-01/1.000000e-01

 Standard Electronic Orientation quadrupole field applied
 Nucleus-field energy     =     0.0000000070 hartrees
 Guess MOs from converged MOs on fragments

-----------------------------------------------------------------
 SCF on fragment 1 out of 2
/home/qwang/software/qchem5.1.2/exe/qcprog.exe /scratch/xuedong/qchem12157/Frg1.input /scratch/xuedong/qchem12157/Frg1/ > /dev/null 
 SCF on fragment 2 out of 2
/home/qwang/software/qchem5.1.2/exe/qcprog.exe /scratch/xuedong/qchem12157/Frg2.input /scratch/xuedong/qchem12157/Frg2/ > /dev/null 
-----------------------------------------------------------------
 Done with SCF on isolated fragments
-----------------------------------------------------------------

 User-specified occupied guess orbitals will be used
 A restricted Hartree-Fock SCF calculation will be
 performed using Pulay DIIS extrapolation
 SCF converges when DIIS error is below 1.0E-07
 using 6 threads for integral computing
 -------------------------------------------------------
 OpenMP Integral computing Module                
 Release: version 1.0, May 2013, Q-Chem Inc. Pittsburgh 
 -------------------------------------------------------
 ---------------------------------------
  Cycle       Energy         DIIS Error
 ---------------------------------------
    1    -406.3830143889      1.67E-04
    2    -406.3835883889      3.35E-05
    3    -406.3836190188      1.03E-05
    4    -406.3836219473      3.92E-06
    5    -406.3836223622      1.50E-06
    6    -406.3836224145      3.77E-07
    7    -406.3836224188      9.81E-08 Convergence criterion met
 ---------------------------------------
 SCF time:  CPU 208.73 s  wall 34.84 s

-----------------------------------------------------------------
 SCF CP correction for fragment 1 out of 2
/home/qwang/software/qchem5.1.2/exe/qcprog.exe /scratch/xuedong/qchem12157/Frg1.input /scratch/xuedong/qchem12157/Frg1BSSE/ > /dev/null 
 SCF CP correction for fragment 2 out of 2
/home/qwang/software/qchem5.1.2/exe/qcprog.exe /scratch/xuedong/qchem12157/Frg2.input /scratch/xuedong/qchem12157/Frg2BSSE/ > /dev/null 
-----------------------------------------------------------------
 Done with counterpoise correction on fragments
-----------------------------------------------------------------

 SCF   energy in the final basis set = -406.38362242
 Total energy in the final basis set = -406.38362242
 
 Components of the MP2 correlation energy:
        aaaa  correlation energy =        -0.0608311907 au
        abab  correlation energy =        -0.4723533230 au
        bbbb  correlation energy =        -0.0608311907 au
        non-Brillouin singles    =        -0.0000000000 au

 Total  MP2   correlation energy =                    -0.59401570 au
        MP2         total energy =                  -406.97763812 au
 
 --------------------------------------------------------------
             Orbital Energies (a.u.) and Symmetries
 --------------------------------------------------------------
 
 Alpha MOs, Restricted
 -- Occupied --                  
-68.774 -20.565 -11.221  -6.123  -4.229  -4.229  -4.229  -1.351
  1 A'    2 A'    3 A'    4 A'    1 A"    5 A'    6 A'    7 A'                 
 -0.962  -0.714  -0.705  -0.585  -0.578  -0.578  -0.508  -0.477
  8 A'    9 A'   10 A'   11 A'    2 A"   12 A'    3 A"    4 A"                 
 -0.477  -0.464
 13 A'   14 A'                                                                 
 -- Virtual --                   
  0.025   0.036   0.043   0.045   0.052   0.067   0.067   0.073
 15 A'   16 A'    5 A"   17 A'   18 A'    6 A"   19 A'   20 A'                 
  0.078   0.081   0.101   0.123   0.130   0.132   0.140   0.145
  7 A"   21 A'   22 A'   23 A'   24 A'    8 A"   25 A'   26 A'                 
  0.155   0.158   0.171   0.177   0.190   0.190   0.200   0.217
  9 A"   27 A'   10 A"   28 A'   29 A'   11 A"   30 A'   31 A'                 
  0.223   0.234   0.241   0.247   0.250   0.253   0.261   0.280
 12 A"   32 A'   33 A'   34 A'   13 A"   35 A'   36 A'   14 A"                 
  0.288   0.298   0.306   0.314   0.319   0.326   0.328   0.329
 15 A"   37 A'   38 A'   39 A'   16 A"   40 A'   41 A'   17 A"                 
  0.331   0.332   0.354   0.367   0.371   0.375   0.389   0.418
 42 A'   18 A"   43 A'   19 A"   44 A'   20 A"   21 A"   45 A'                 
  0.428   0.438   0.452   0.454   0.461   0.465   0.473   0.474
 46 A'   47 A'   48 A'   22 A"   49 A'   50 A'   23 A"   51 A'                 
  0.476   0.478   0.479   0.511   0.533   0.558   0.586   0.592
 52 A'   24 A"   53 A'   25 A"   54 A'   55 A'   56 A'   57 A'                 
  0.602   0.605   0.620   0.639   0.646   0.650   0.673   0.678
 58 A'   26 A"   59 A'   27 A"   28 A"   60 A'   61 A'   62 A'                 
  0.680   0.685   0.696   0.697   0.713   0.737   0.741   0.751
 29 A"   30 A"   31 A"   63 A'   64 A'   65 A'   32 A"   66 A'                 
  0.762   0.799   0.810   0.817   0.821   0.823   0.864   0.868
 33 A"   67 A'   68 A'   34 A"   69 A'   70 A'   71 A'   35 A"                 
  0.876   0.884   0.902   0.910   0.927   0.937   0.942   0.946
 72 A'   36 A"   73 A'   37 A"   74 A'   38 A"   75 A'   39 A"                 
  0.949   0.953   0.983   0.984   0.991   0.997   1.000   1.013
 76 A'   40 A"   41 A"   77 A'   78 A'   42 A"   79 A'   80 A'                 
  1.024   1.029   1.046   1.055   1.070   1.080   1.099   1.101
 81 A'   43 A"   82 A'   83 A'   44 A"   84 A'   85 A'   86 A'                 
  1.123   1.126   1.137   1.149   1.152   1.154   1.164   1.196
 45 A"   87 A'   46 A"   47 A"   48 A"   88 A'   89 A'   90 A'                 
  1.199   1.211   1.215   1.228   1.259   1.277   1.285   1.295
 49 A"   91 A'   50 A"   92 A'   93 A'   94 A'   51 A"   52 A"                 
  1.307   1.312   1.331   1.340   1.347   1.366   1.382   1.388
 95 A'   96 A'   53 A"   54 A"   97 A'   98 A'   55 A"   99 A'                 
  1.408   1.413   1.425   1.431   1.437   1.446   1.474   1.500
100 A'   56 A"  101 A'   57 A"   58 A"  102 A'  103 A'   59 A"                 
  1.511   1.535   1.556   1.561   1.583   1.604   1.616   1.625
104 A'   60 A"   61 A"  105 A'  106 A'  107 A'  108 A'   62 A"                 
  1.641   1.656   1.669   1.697   1.702   1.711   1.722   1.736
 63 A"  109 A'  110 A'   64 A"  111 A'  112 A'   65 A"  113 A'                 
  1.814   1.843   1.850   1.852   1.905   1.913   1.924   1.962
114 A'   66 A"   67 A"  115 A'   68 A"  116 A'  117 A'  118 A'                 
  2.000   2.019   2.029   2.037   2.045   2.059   2.077   2.123
 69 A"  119 A'  120 A'   70 A"  121 A'  122 A'  123 A'   71 A"                 
  2.135   2.155   2.156   2.180   2.215   2.270   2.270   2.295
124 A'   72 A"  125 A'  126 A'   73 A"   74 A"  127 A'   75 A"                 
  2.348   2.352   2.357   2.413   2.456   2.477   2.502   2.536
 76 A"  128 A'  129 A'  130 A'   77 A"  131 A'  132 A'   78 A"                 
  2.574   2.627   2.745   2.761   2.832   2.895   2.971   2.975
133 A'  134 A'  135 A'   79 A"  136 A'  137 A'   80 A"  138 A'                 
  3.089   3.096   3.201   3.354   3.407   3.410   3.460   3.583
 81 A"  139 A'  140 A'  141 A'  142 A'   82 A"  143 A'   83 A"                 
  3.595   3.600   3.668   3.672   3.677   3.706   3.711   3.757
144 A'   84 A"   85 A"  145 A'  146 A'   86 A"  147 A'  148 A'                 
  3.835   3.858   3.914   3.940   3.942   3.986   4.025   4.034
 87 A"  149 A'  150 A'   88 A"  151 A'   89 A"   90 A"  152 A'                 
  4.054   4.085   4.087   4.121   4.125   4.126   4.145   4.150
 91 A"   92 A"  153 A'   93 A"  154 A'   94 A"  155 A'  156 A'                 
  4.189   4.196   4.205   4.215   4.217   4.231   4.248   4.262
 95 A"  157 A'  158 A'  159 A'   96 A"  160 A'   97 A"  161 A'                 
  4.291   4.314   4.333   4.334   4.336   4.360   4.398   4.445
162 A'   98 A"   99 A"  100 A"  163 A'  164 A'  101 A"  165 A'                 
  4.451   4.523   4.526   4.529   4.548   4.587   4.594   4.596
102 A"  166 A'  103 A"  167 A'  104 A"  168 A'  105 A"  169 A'                 
  4.619   4.755   4.768   4.773   4.794   4.798   4.801   4.862
170 A'  106 A"  171 A'  172 A'  173 A'  107 A"  174 A'  108 A"                 
  4.871   4.923   4.994   5.011   5.019   5.029   5.077   5.159
175 A'  176 A'  109 A"  110 A"  177 A'  178 A'  179 A'  111 A"                 
  5.161   5.168   5.222   5.243   5.254   5.319   5.378   5.443
180 A'  112 A"  181 A'  113 A"  182 A'  183 A'  184 A'  185 A'                 
  5.538   5.573   5.579   5.580   5.636   5.717   5.947   6.087
114 A"  115 A"  186 A'  116 A"  187 A'  188 A'  189 A'  190 A'                 
  6.093   6.242   6.551   6.686   6.695   6.753   6.959   7.142
117 A"  191 A'  192 A'  118 A"  193 A'  119 A"  194 A'  120 A"                 
  7.289   7.328   7.334   7.392   7.448   7.739   7.966   7.987
121 A"  195 A'  122 A"  196 A'  123 A"  197 A'  198 A'  199 A'                 
  8.843   9.269  16.582  17.544
200 A'  201 A'  202 A'  203 A'                                                 
 
 Beta MOs, Restricted
 -- Occupied --                  
-68.774 -20.565 -11.221  -6.123  -4.229  -4.229  -4.229  -1.351
  1 A'    2 A'    3 A'    4 A'    1 A"    5 A'    6 A'    7 A'                 
 -0.962  -0.714  -0.705  -0.585  -0.578  -0.578  -0.508  -0.477
  8 A'    9 A'   10 A'   11 A'    2 A"   12 A'    3 A"    4 A"                 
 -0.477  -0.464
 13 A'   14 A'                                                                 
 -- Virtual --                   
  0.025   0.036   0.043   0.045   0.052   0.067   0.067   0.073
 15 A'   16 A'    5 A"   17 A'   18 A'    6 A"   19 A'   20 A'                 
  0.078   0.081   0.101   0.123   0.130   0.132   0.140   0.145
  7 A"   21 A'   22 A'   23 A'   24 A'    8 A"   25 A'   26 A'                 
  0.155   0.158   0.171   0.177   0.190   0.190   0.200   0.217
  9 A"   27 A'   10 A"   28 A'   29 A'   11 A"   30 A'   31 A'                 
  0.223   0.234   0.241   0.247   0.250   0.253   0.261   0.280
 12 A"   32 A'   33 A'   34 A'   13 A"   35 A'   36 A'   14 A"                 
  0.288   0.298   0.306   0.314   0.319   0.326   0.328   0.329
 15 A"   37 A'   38 A'   39 A'   16 A"   40 A'   41 A'   17 A"                 
  0.331   0.332   0.354   0.367   0.371   0.375   0.389   0.418
 42 A'   18 A"   43 A'   19 A"   44 A'   20 A"   21 A"   45 A'                 
  0.428   0.438   0.452   0.454   0.461   0.465   0.473   0.474
 46 A'   47 A'   48 A'   22 A"   49 A'   50 A'   23 A"   51 A'                 
  0.476   0.478   0.479   0.511   0.533   0.558   0.586   0.592
 52 A'   24 A"   53 A'   25 A"   54 A'   55 A'   56 A'   57 A'                 
  0.602   0.605   0.620   0.639   0.646   0.650   0.673   0.678
 58 A'   26 A"   59 A'   27 A"   28 A"   60 A'   61 A'   62 A'                 
  0.680   0.685   0.696   0.697   0.713   0.737   0.741   0.751
 29 A"   30 A"   31 A"   63 A'   64 A'   65 A'   32 A"   66 A'                 
  0.762   0.799   0.810   0.817   0.821   0.823   0.864   0.868
 33 A"   67 A'   68 A'   34 A"   69 A'   70 A'   71 A'   35 A"                 
  0.876   0.884   0.902   0.910   0.927   0.937   0.942   0.946
 72 A'   36 A"   73 A'   37 A"   74 A'   38 A"   75 A'   39 A"                 
  0.949   0.953   0.983   0.984   0.991   0.997   1.000   1.013
 76 A'   40 A"   41 A"   77 A'   78 A'   42 A"   79 A'   80 A'                 
  1.024   1.029   1.046   1.055   1.070   1.080   1.099   1.101
 81 A'   43 A"   82 A'   83 A'   44 A"   84 A'   85 A'   86 A'                 
  1.123   1.126   1.137   1.149   1.152   1.154   1.164   1.196
 45 A"   87 A'   46 A"   47 A"   48 A"   88 A'   89 A'   90 A'                 
  1.199   1.211   1.215   1.228   1.259   1.277   1.285   1.295
 49 A"   91 A'   50 A"   92 A'   93 A'   94 A'   51 A"   52 A"                 
  1.307   1.312   1.331   1.340   1.347   1.366   1.382   1.388
 95 A'   96 A'   53 A"   54 A"   97 A'   98 A'   55 A"   99 A'                 
  1.408   1.413   1.425   1.431   1.437   1.446   1.474   1.500
100 A'   56 A"  101 A'   57 A"   58 A"  102 A'  103 A'   59 A"                 
  1.511   1.535   1.556   1.561   1.583   1.604   1.616   1.625
104 A'   60 A"   61 A"  105 A'  106 A'  107 A'  108 A'   62 A"                 
  1.641   1.656   1.669   1.697   1.702   1.711   1.722   1.736
 63 A"  109 A'  110 A'   64 A"  111 A'  112 A'   65 A"  113 A'                 
  1.814   1.843   1.850   1.852   1.905   1.913   1.924   1.962
114 A'   66 A"   67 A"  115 A'   68 A"  116 A'  117 A'  118 A'                 
  2.000   2.019   2.029   2.037   2.045   2.059   2.077   2.123
 69 A"  119 A'  120 A'   70 A"  121 A'  122 A'  123 A'   71 A"                 
  2.135   2.155   2.156   2.180   2.215   2.270   2.270   2.295
124 A'   72 A"  125 A'  126 A'   73 A"   74 A"  127 A'   75 A"                 
  2.348   2.352   2.357   2.413   2.456   2.477   2.502   2.536
 76 A"  128 A'  129 A'  130 A'   77 A"  131 A'  132 A'   78 A"                 
  2.574   2.627   2.745   2.761   2.832   2.895   2.971   2.975
133 A'  134 A'  135 A'   79 A"  136 A'  137 A'   80 A"  138 A'                 
  3.089   3.096   3.201   3.354   3.407   3.410   3.460   3.583
 81 A"  139 A'  140 A'  141 A'  142 A'   82 A"  143 A'   83 A"                 
  3.595   3.600   3.668   3.672   3.677   3.706   3.711   3.757
144 A'   84 A"   85 A"  145 A'  146 A'   86 A"  147 A'  148 A'                 
  3.835   3.858   3.914   3.940   3.942   3.986   4.025   4.034
 87 A"  149 A'  150 A'   88 A"  151 A'   89 A"   90 A"  152 A'                 
  4.054   4.085   4.087   4.121   4.125   4.126   4.145   4.150
 91 A"   92 A"  153 A'   93 A"  154 A'   94 A"  155 A'  156 A'                 
  4.189   4.196   4.205   4.215   4.217   4.231   4.248   4.262
 95 A"  157 A'  158 A'  159 A'   96 A"  160 A'   97 A"  161 A'                 
  4.291   4.314   4.333   4.334   4.336   4.360   4.398   4.445
162 A'   98 A"   99 A"  100 A"  163 A'  164 A'  101 A"  165 A'                 
  4.451   4.523   4.526   4.529   4.548   4.587   4.594   4.596
102 A"  166 A'  103 A"  167 A'  104 A"  168 A'  105 A"  169 A'                 
  4.619   4.755   4.768   4.773   4.794   4.798   4.801   4.862
170 A'  106 A"  171 A'  172 A'  173 A'  107 A"  174 A'  108 A"                 
  4.871   4.923   4.994   5.011   5.019   5.029   5.077   5.159
175 A'  176 A'  109 A"  110 A"  177 A'  178 A'  179 A'  111 A"                 
  5.161   5.168   5.222   5.243   5.254   5.319   5.378   5.443
180 A'  112 A"  181 A'  113 A"  182 A'  183 A'  184 A'  185 A'                 
  5.538   5.573   5.579   5.580   5.636   5.717   5.947   6.087
114 A"  115 A"  186 A'  116 A"  187 A'  188 A'  189 A'  190 A'                 
  6.093   6.242   6.551   6.686   6.695   6.753   6.959   7.142
117 A"  191 A'  192 A'  118 A"  193 A'  119 A"  194 A'  120 A"                 
  7.289   7.328   7.334   7.392   7.448   7.739   7.966   7.987
121 A"  195 A'  122 A"  196 A'  123 A"  197 A'  198 A'  199 A'                 
  8.843   9.269  16.582  17.544
200 A'  201 A'  202 A'  203 A'                                                 
 --------------------------------------------------------------
 
          Ground-State Mulliken Net Atomic Charges

     Atom                 Charge (a.u.)
  ----------------------------------------
      1 O                    -0.506980
      2 H                     0.197977
      3 H                     0.304980
      4 Si                    1.326603
      5 H                    -0.378994
      6 H                    -0.378994
      7 H                    -0.392080
      8 C                    -1.043460
      9 H                     0.291155
     10 H                     0.288636
     11 H                     0.291155
  ----------------------------------------
  Sum of atomic charges =     0.000000

 -----------------------------------------------------------------
                    Cartesian Multipole Moments
 -----------------------------------------------------------------
    Charge (ESU x 10^10)
                 0.0000
    Dipole Moment (Debye)
         X      -0.9253      Y       1.5343      Z      -0.0000
       Tot       1.7917
    Quadrupole Moments (Debye-Ang)
        XX     -39.3351     XY       6.4379     YY     -28.6893
        XZ       0.0000     YZ      -0.0000     ZZ     -30.6984
    Octopole Moments (Debye-Ang^2)
       XXX      -3.6083    XXY      25.8737    XYY      15.2348
       YYY      -0.0736    XXZ      -0.0000    XYZ      -0.0000
       YYZ      -0.0000    XZZ       7.5448    YZZ       2.1610
       ZZZ       0.0000
    Hexadecapole Moments (Debye-Ang^3)
      XXXX   -1078.2543   XXXY     106.1636   XXYY    -158.9016
      XYYY       8.8516   YYYY     -63.3241   XXXZ       0.0000
      XXYZ      -0.0000   XYYZ       0.0000   YYYZ       0.0000
      XXZZ    -186.4218   XYZZ      -1.5799   YYZZ     -21.2601
      XZZZ      -0.0000   YZZZ       0.0000   ZZZZ     -63.2856
 -----------------------------------------------------------------

 ---------------------------------------------------------------------
 *                     Fragment's binding energy                     *
 ---------------------------------------------------------------------
    Fragment           E(TOTAL)         E(CP-CORR)           DE(BSSE)
 ---------------------------------------------------------------------
           1     -76.3289736878     -76.3292532654       0.0002795776
           2    -330.6467076863    -330.6469008242       0.0001931379
     Complex    -406.9776381232
 ---------------------------------------------------------------------
  DE, kJ/mol      -5.1375056435      -3.8963764243
 ---------------------------------------------------------------------

Archival summary:
1\1\gm4.localdomain\SP\MP2\BasisUnspecified\i1118\xuedong\WedJul1011:46:262019WedJul1011:46:262019\0\\#,MP2,BasisUnspecified,\\0,1\Si\H,1,1.47981\H,1,1.47981,2,108.77\H,1,1.48021,2,108.696,3,-118.191,0\C,1,1.88156,2,110.211,3,120.926,0\H,5,1.08916,1,110.482,2,-179.846,0\H,5,1.08916,1,110.482,2,59.7863,0\H,5,1.08958,1,110.033,2,-60.0298,0\H,8,2.46766,5,92.5519,1,-180,0\O,9,0.959766,8,161.061,5,180,0\H,10,0.959291,9,103.478,8,-180,0\\HF=-406.383622\MP2=-406.977638\\@

 Total job time:  361.37s(wall), 688.56s(cpu) 
 Wed Jul 10 11:46:26 2019

        *************************************************************
        *                                                           *
        *  Thank you very much for using Q-Chem.  Have a nice day.  *
        *                                                           *
        *************************************************************


