
Running Job 1 of 1 ../qm_inp/SiH3CH3_water.con1.100.qcinp
qchem ../qm_inp/SiH3CH3_water.con1.100.qcinp_11782.0 /scratch/xuedong/qchem11782/ 1
/home/qwang/software/qchem5.1.2/exe/qcprog.exe_s ../qm_inp/SiH3CH3_water.con1.100.qcinp_11782.0 /scratch/xuedong/qchem11782/
Check license passed

                  Welcome to Q-Chem
     A Quantum Leap Into The Future Of Chemistry


 Q-Chem 5.1, Q-Chem, Inc., Pleasanton, CA (2018)

 Yihan Shao,  Zhengting Gan,  E. Epifanovsky,  A. T. B. Gilbert,  M. Wormit,  
 J. Kussmann,  A. W. Lange,  A. Behn,  Jia Deng,  Xintian Feng,  D. Ghosh,  
 M. Goldey,  P. R. Horn,  L. D. Jacobson,  I. Kaliman,  T. Kus,  A. Landau,  
 Jie Liu,  E. I. Proynov,  R. M. Richard,  R. P. Steele,  E. J. Sundstrom,  
 H. L. Woodcock III,  P. M. Zimmerman,  D. Zuev,  B. Albrecht,  E. Alguire,  
 S. A. Baeppler,  D. Barton,  Z. Benda,  Y. A. Bernard,  E. J. Berquist,  
 K. B. Bravaya,  H. Burton,  D. Casanova,  Chun-Min Chang,  Yunqing Chen,  
 A. Chien,  K. D. Closser,  M. P. Coons,  S. Coriani,  S. Dasgupta,  
 A. L. Dempwolff,  M. Diedenhofen,  Hainam Do,  R. G. Edgar,  Po-Tung Fang,  
 S. Faraji,  S. Fatehi,  Qingguo Feng,  K. D. Fenk,  J. Fosso-Tande,  
 J. Gayvert,  Qinghui Ge,  A. Ghysels,  G. Gidofalvi,  J. Gomes,  
 J. Gonthier,  A. Gunina,  D. Hait,  M. W. D. Hanson-Heine,  
 P. H. P. Harbach,  A. W. Hauser,  J. E. Herr,  E. G. Hohenstein,  
 Z. C. Holden,  Kerwin Hui,  B. C. Huynh,  T.-C. Jagau,  Hyunjun Ji,  
 B. Kaduk,  K. Khistyaev,  Jaehoon Kim,  P. Klunzinger,  K. Koh,  
 D. Kosenkov,  L. Koulias,  T. Kowalczyk,  C. M. Krauter,  A. Kunitsa,  
 Ka Un Lao,  A. Laurent,  K. V. Lawler,  Joonho Lee,  D. Lefrancois,  
 S. Lehtola,  D. S. Levine,  Yi-Pei Li,  You-Sheng Lin,  Fenglai Liu,  
 E. Livshits,  A. Luenser,  P. Manohar,  E. Mansoor,  S. F. Manzer,  
 Shan-Ping Mao,  Yuezhi Mao,  N. Mardirossian,  A. V. Marenich,  
 T. Markovich,  L. A. Martinez-Martinez,  S. A. Maurer,  N. J. Mayhall,  
 S. C. McKenzie,  J.-M. Mewes,  A. F. Morrison,  J. W. Mullinax,  K. Nanda,  
 T. S. Nguyen-Beck,  R. Olivares-Amaya,  J. A. Parkhill,  T. M. Perrine,  
 F. Plasser,  P. Pokhilko,  S. Prager,  A. Prociuk,  E. Ramos,  D. R. Rehn,  
 F. Rob,  M. Schneider,  N. Sergueev,  S. M. Sharada,  S. Sharma,  
 D. W. Small,  T. Stauch,  T. Stein,  Yu-Chuan Su,  A. J. W. Thom,  
 A. Tkatchenko,  T. Tsuchimochi,  N. M. Tubman,  L. Vogt,  M. L. Vidal,  
 O. Vydrov,  M. A. Watson,  J. Wenzel,  M. de Wergifosse,  T. A. Wesolowski,  
 A. White,  J. Witte,  A. Yamada,  Jun Yang,  K. Yao,  S. Yeganeh,  
 S. R. Yost,  Zhi-Qiang You,  A. Zech,  Igor Ying Zhang,  Xing Zhang,  
 Yan Zhao,  Ying Zhu,  B. R. Brooks,  G. K. L. Chan,  C. J. Cramer,  
 M. S. Gordon,  W. J. Hehre,  A. Klamt,  M. W. Schmidt,  C. D. Sherrill,  
 D. G. Truhlar,  A. Aspuru-Guzik,  R. Baer,  A. T. Bell,  N. A. Besley,  
 Jeng-Da Chai,  A. E. DePrince, III,  R. A. DiStasio Jr.,  A. Dreuw,  
 B. D. Dunietz,  T. R. Furlani,  Chao-Ping Hsu,  Yousung Jung,  Jing Kong,  
 D. S. Lambrecht,  WanZhen Liang,  C. Ochsenfeld,  V. A. Rassolov,  
 L. V. Slipchenko,  J. E. Subotnik,  T. Van Voorhis,  J. M. Herbert,  
 A. I. Krylov,  P. M. W. Gill,  M. Head-Gordon

 Contributors to earlier versions of Q-Chem not listed above: 
 R. D. Adamson,  B. Austin,  J. Baker,  G. J. O. Beran,  K. Brandhorst,  
 S. T. Brown,  E. F. C. Byrd,  A. K. Chakraborty,  C.-L. Cheng,  
 Siu Hung Chien,  D. M. Chipman,  D. L. Crittenden,  H. Dachsel,  
 R. J. Doerksen,  A. D. Dutoi,  L. Fusti-Molnar,  W. A. Goddard III,  
 A. Golubeva-Zadorozhnaya,  S. R. Gwaltney,  G. Hawkins,  A. Heyden,  
 S. Hirata,  G. Kedziora,  F. J. Keil,  C. Kelley,  Jihan Kim,  R. A. King,  
 R. Z. Khaliullin,  P. P. Korambath,  W. Kurlancheek,  A. M. Lee,  M. S. Lee,  
 S. V. Levchenko,  Ching Yeh Lin,  D. Liotard,  R. C. Lochan,  I. Lotan,  
 P. E. Maslen,  N. Nair,  D. P. O'Neill,  D. Neuhauser,  E. Neuscamman,  
 C. M. Oana,  R. Olson,  B. Peters,  R. Peverati,  P. A. Pieniazek,  
 Y. M. Rhee,  J. Ritchie,  M. A. Rohrdanz,  E. Rosta,  N. J. Russ,  
 H. F. Schaefer III,  N. E. Schultz,  N. Shenvi,  A. C. Simmonett,  A. Sodt,  
 D. Stuck,  K. S. Thanthiriwatte,  V. Vanovschi,  Tao Wang,  A. Warshel,  
 C. F. Williams,  Q. Wu,  X. Xu,  W. Zhang

 Please cite Q-Chem as follows:
 Y. Shao et al., Mol. Phys. 113, 184-215 (2015)
 DOI: 10.1080/00268976.2014.952696

 Q-Chem 5.1.2 for Intel X86 EM64T Linux

 Parts of Q-Chem use Armadillo 8.300.2 (Tropical Shenanigans).
 http://arma.sourceforge.net/

 Q-Chem begins on Wed Jul 10 11:27:46 2019  

Host: 
0

     Scratch files written to /scratch/xuedong/qchem11782//
 Dec218 |scratch|qcdevops|jenkins|workspace|build_RNUM 6581   
Processing $rem in /home/qwang/software/qchem5.1.2/config/preferences.
 MEM_TOTAL  4000 
Core orbitals will be frozen
Input Ideriv = 1
Curr. Ideriv = -1
Max.  Ideriv = 1

Checking the input file for inconsistencies... 	...done.

--------------------------------------------------------------
User input:
--------------------------------------------------------------
$molecule
0 1
--
0 1
O     3.417192278    -0.078854989     0.000000000
H     3.621539415     0.858418795     0.000000000
H     2.457629173    -0.098605673     0.000000000
--
0 1
Si    -1.917929331    -0.029870643     0.000000000
H    -2.396708617    -0.746381011     1.203009641
H    -2.396708617    -0.746381011    -1.203009641
H    -2.492756587     1.334164347     0.000000000
C    -0.038357362     0.056701441     0.000000000
H     0.319001501     0.581015557    -0.885246536
H     0.381600793    -0.948695229     0.000000000
H     0.319001501     0.581015557     0.885246536
$end

$rem
BASIS = aug-cc-pVTZ
JOB_TYPE  =  BSSE
METHOD  =  MP2
SCF_CONVERGENCE  =  7
SCF_MAX_CYCLES  =  200
$end

--------------------------------------------------------------
 ----------------------------------------------------------------
             Standard Nuclear Orientation (Angstroms)
    I     Atom           X                Y                Z
 ----------------------------------------------------------------
    1      O       3.4142929313    -0.1157783430    -0.0000000000
    2      H       3.6279581363     0.8194152619     0.0000000000
    3      H       2.4545807826    -0.1259780264    -0.0000000000
    4      Si     -1.9200769296    -0.0136987886    -0.0000000000
    5      H      -2.4059635506    -0.7254086338     1.2030096410
    6      H      -2.4059635506    -0.7254086338    -1.2030096410
    7      H      -2.4813001997     1.3559895954     0.0000000000
    8      C      -0.0397364443     0.0541626253     0.0000000000
    9      H       0.3228229400     0.5748941704    -0.8852465360
   10      H       0.3701947319    -0.9553638711    -0.0000000000
   11      H       0.3228229400     0.5748941704     0.8852465360
 ----------------------------------------------------------------
 Molecular Point Group                 Cs    NOp =  2
 Largest Abelian Subgroup              Cs    NOp =  2
 Nuclear Repulsion Energy =   103.3043702670 hartrees
 There are       18 alpha and       18 beta electrons
 Requested basis set is aug-cc-pVTZ
 There are 116 shells and 326 basis functions

 Total QAlloc Memory Limit   4000 MB
 Mega-Array Size       188 MB
 MEM_STATIC part       192 MB

                       Distance Matrix (Angstroms)
             O (  1)   H (  2)   H (  3)   Si(  4)   H (  5)   H (  6)
   H (  2)  0.959291
   H (  3)  0.959766  1.506845
   Si(  4)  5.335346  5.610238  4.376098
   H (  5)  5.974468  6.343652  5.042959  1.479814
   H (  6)  5.974468  6.343652  5.042959  1.479814  2.406019
   H (  7)  6.076522  6.132777  5.153557  1.480209  2.405229  2.405229
   C (  8)  3.458207  3.746678  2.500814  1.881565  2.766585  2.766585
   H (  9)  3.289054  3.430360  2.412317  2.482076  3.673946  3.039414
   H ( 10)  3.157758  3.709833  2.243334  2.476303  3.034331  3.034331
   H ( 11)  3.289054  3.430360  2.412317  2.482076  3.039414  3.673946
             H (  7)   C (  8)   H (  9)   H ( 10)
   C (  8)  2.766945
   H (  9)  3.042512  1.089161
   H ( 10)  3.670610  1.089581  1.768501
   H ( 11)  3.042512  1.089161  1.770493  1.768501
 
 A cutoff of  1.0D-10 yielded   6222 shell pairs
 There are     48364 function pairs (     61902 Cartesian)
 
 -------------------------------------------------------
 OpenMP Integral Computing Module                       
 Release: version 1.0, May 2013, Q-Chem Inc. Pittsburgh 
 -------------------------------------------------------
 Integral Job Info:
 Integral job number is                      11
 Integral operator is                         1
 short-range coefficients                     0
 long-range coefficients              100000000
 Omega coefficients                           0
 if combine SR and LR in K                    0
 Integral screening is                        0
 Integral computing path is                   2
 max size of driver memory is            800000
 size of driver memory is                776718
 size of scratch memory is             29531563
 max col of scratch BK array              10000
 max len of scratch array in speh3          662
 max len of scratch index in speh4           32
 max int batch size is                      520
 min int batch size is                       52
 fixed nKL is                                31
 max L of basis functions is                  3
 order of int derivative is                   0
 number of shells is                        116
 number of basis is                         369
 number of cartesian basis is               369
 number of contracted shell pairs          6222
 number of primitive shell pairs          16700
 maxK2 (contraction) of shell pair          169
 max number of K2 of shell pair               1
 max number of CS2 of shell pair           1097
 max number of PS2 of shell pair           1131
 mem total for path MDJ                  660108
 -------------------------------------------------------
 Smallest overlap matrix eigenvalue = 1.21E-05

 Scale SEOQF with 1.000000e-01/1.000000e-01/1.000000e-01

 Standard Electronic Orientation quadrupole field applied
 Nucleus-field energy     =     0.0000000064 hartrees
 Guess MOs from converged MOs on fragments

-----------------------------------------------------------------
 SCF on fragment 1 out of 2
/home/qwang/software/qchem5.1.2/exe/qcprog.exe /scratch/xuedong/qchem11782/Frg1.input /scratch/xuedong/qchem11782/Frg1/ > /dev/null 
 SCF on fragment 2 out of 2
/home/qwang/software/qchem5.1.2/exe/qcprog.exe /scratch/xuedong/qchem11782/Frg2.input /scratch/xuedong/qchem11782/Frg2/ > /dev/null 
-----------------------------------------------------------------
 Done with SCF on isolated fragments
-----------------------------------------------------------------

 User-specified occupied guess orbitals will be used
 A restricted Hartree-Fock SCF calculation will be
 performed using Pulay DIIS extrapolation
 SCF converges when DIIS error is below 1.0E-07
 using 6 threads for integral computing
 -------------------------------------------------------
 OpenMP Integral computing Module                
 Release: version 1.0, May 2013, Q-Chem Inc. Pittsburgh 
 -------------------------------------------------------
 ---------------------------------------
  Cycle       Energy         DIIS Error
 ---------------------------------------
    1    -406.3818627060      2.28E-04
    2    -406.3829330832      4.69E-05
    3    -406.3829899861      1.51E-05
    4    -406.3829953136      5.99E-06
    5    -406.3829961465      2.16E-06
    6    -406.3829962688      5.09E-07
    7    -406.3829962769      1.38E-07
    8    -406.3829962768      6.40E-08 Convergence criterion met
 ---------------------------------------
 SCF time:  CPU 248.52 s  wall 41.46 s

-----------------------------------------------------------------
 SCF CP correction for fragment 1 out of 2
/home/qwang/software/qchem5.1.2/exe/qcprog.exe /scratch/xuedong/qchem11782/Frg1.input /scratch/xuedong/qchem11782/Frg1BSSE/ > /dev/null 
 SCF CP correction for fragment 2 out of 2
/home/qwang/software/qchem5.1.2/exe/qcprog.exe /scratch/xuedong/qchem11782/Frg2.input /scratch/xuedong/qchem11782/Frg2BSSE/ > /dev/null 
-----------------------------------------------------------------
 Done with counterpoise correction on fragments
-----------------------------------------------------------------

 SCF   energy in the final basis set = -406.38299628
 Total energy in the final basis set = -406.38299628
 
 Components of the MP2 correlation energy:
        aaaa  correlation energy =        -0.0610167835 au
        abab  correlation energy =        -0.4727712091 au
        bbbb  correlation energy =        -0.0610167835 au
        non-Brillouin singles    =        -0.0000000000 au

 Total  MP2   correlation energy =                    -0.59480478 au
        MP2         total energy =                  -406.97780105 au
 
 --------------------------------------------------------------
             Orbital Energies (a.u.) and Symmetries
 --------------------------------------------------------------
 
 Alpha MOs, Restricted
 -- Occupied --                  
-68.775 -20.563 -11.222  -6.124  -4.230  -4.230  -4.230  -1.349
  1 A'    2 A'    3 A'    4 A'    1 A"    5 A'    6 A'    7 A'                 
 -0.965  -0.715  -0.704  -0.583  -0.580  -0.580  -0.506  -0.478
  8 A'    9 A'   10 A'   11 A'    2 A"   12 A'    3 A"   13 A'                 
 -0.478  -0.465
  4 A"   14 A'                                                                 
 -- Virtual --                   
  0.026   0.036   0.043   0.045   0.052   0.067   0.067   0.074
 15 A'   16 A'    5 A"   17 A'   18 A'    6 A"   19 A'   20 A'                 
  0.078   0.082   0.101   0.124   0.131   0.132   0.140   0.146
  7 A"   21 A'   22 A'   23 A'   24 A'    8 A"   25 A'   26 A'                 
  0.155   0.157   0.172   0.178   0.191   0.193   0.202   0.217
  9 A"   27 A'   10 A"   28 A'   11 A"   29 A'   30 A'   31 A'                 
  0.223   0.235   0.242   0.248   0.251   0.257   0.265   0.282
 12 A"   32 A'   33 A'   34 A'   13 A"   35 A'   36 A'   14 A"                 
  0.288   0.300   0.310   0.319   0.322   0.326   0.327   0.330
 15 A"   37 A'   38 A'   39 A'   16 A"   40 A'   41 A'   17 A"                 
  0.333   0.335   0.358   0.370   0.373   0.375   0.396   0.418
 42 A'   18 A"   43 A'   19 A"   44 A'   20 A"   21 A"   45 A'                 
  0.426   0.447   0.455   0.456   0.463   0.467   0.472   0.474
 46 A'   47 A'   48 A'   22 A"   49 A'   50 A'   23 A"   51 A'                 
  0.479   0.483   0.487   0.513   0.537   0.566   0.584   0.594
 52 A'   24 A"   53 A'   25 A"   54 A'   55 A'   56 A'   57 A'                 
  0.602   0.610   0.621   0.639   0.646   0.652   0.676   0.677
 58 A'   26 A"   59 A'   27 A"   28 A"   60 A'   61 A'   62 A'                 
  0.680   0.687   0.700   0.704   0.728   0.744   0.746   0.754
 29 A"   30 A"   31 A"   63 A'   64 A'   32 A"   65 A'   66 A'                 
  0.767   0.796   0.814   0.818   0.824   0.833   0.863   0.865
 33 A"   67 A'   68 A'   34 A"   69 A'   70 A'   71 A'   35 A"                 
  0.874   0.883   0.909   0.916   0.933   0.933   0.945   0.955
 72 A'   36 A"   73 A'   37 A"   38 A"   74 A'   75 A'   39 A"                 
  0.958   0.969   0.988   0.991   0.996   1.012   1.017   1.023
 76 A'   40 A"   41 A"   77 A'   78 A'   79 A'   42 A"   80 A'                 
  1.030   1.041   1.057   1.065   1.067   1.080   1.116   1.125
 43 A"   81 A'   82 A'   83 A'   44 A"   84 A'   85 A'   86 A'                 
  1.133   1.141   1.141   1.153   1.162   1.171   1.184   1.195
 45 A"   46 A"   87 A'   47 A"   88 A'   48 A"   89 A'   49 A"                 
  1.200   1.211   1.225   1.236   1.272   1.284   1.287   1.305
 90 A'   91 A'   50 A"   92 A'   93 A'   94 A'   51 A"   95 A'                 
  1.323   1.327   1.335   1.350   1.360   1.374   1.382   1.395
 96 A'   52 A"   53 A"   97 A'   54 A"   98 A'   55 A"   99 A'                 
  1.414   1.419   1.433   1.439   1.452   1.456   1.476   1.509
 56 A"  100 A'   57 A"  101 A'   58 A"  102 A'  103 A'   59 A"                 
  1.516   1.553   1.565   1.576   1.589   1.604   1.610   1.627
104 A'   60 A"  105 A'   61 A"  106 A'  107 A'  108 A'   62 A"                 
  1.650   1.675   1.681   1.710   1.715   1.727   1.758   1.786
 63 A"  109 A'  110 A'   64 A"  111 A'  112 A'   65 A"  113 A'                 
  1.815   1.841   1.858   1.870   1.911   1.918   1.921   1.978
114 A'   66 A"   67 A"  115 A'   68 A"  116 A'  117 A'  118 A'                 
  2.001   2.023   2.041   2.050   2.052   2.069   2.089   2.127
 69 A"  119 A'  120 A'   70 A"  121 A'  122 A'  123 A'   71 A"                 
  2.159   2.161   2.167   2.205   2.216   2.271   2.271   2.312
124 A'   72 A"  125 A'  126 A'   73 A"   74 A"  127 A'   75 A"                 
  2.359   2.365   2.365   2.433   2.487   2.487   2.549   2.576
128 A'   76 A"  129 A'  130 A'  131 A'   77 A"  132 A'   78 A"                 
  2.587   2.643   2.764   2.769   2.870   2.899   2.989   3.010
133 A'  134 A'  135 A'   79 A"  136 A'  137 A'   80 A"  138 A'                 
  3.091   3.105   3.217   3.357   3.410   3.414   3.466   3.598
 81 A"  139 A'  140 A'  141 A'  142 A'   82 A"  143 A'   83 A"                 
  3.609   3.623   3.668   3.678   3.706   3.713   3.735   3.783
 84 A"  144 A'   85 A"  145 A'   86 A"  146 A'  147 A'  148 A'                 
  3.845   3.875   3.943   3.944   3.948   3.985   4.030   4.036
 87 A"  149 A'   88 A"  150 A'  151 A'   89 A"   90 A"  152 A'                 
  4.057   4.083   4.093   4.123   4.125   4.134   4.134   4.156
 91 A"  153 A'   92 A"   93 A"  154 A'  155 A'   94 A"  156 A'                 
  4.198   4.198   4.216   4.222   4.235   4.237   4.261   4.272
157 A'   95 A"  158 A'   96 A"  159 A'  160 A'   97 A"  161 A'                 
  4.304   4.319   4.333   4.344   4.350   4.368   4.403   4.461
162 A'   98 A"   99 A"  163 A'  100 A"  164 A'  101 A"  165 A'                 
  4.484   4.521   4.525   4.534   4.552   4.593   4.599   4.615
102 A"  166 A'  103 A"  167 A'  104 A"  168 A'  105 A"  169 A'                 
  4.637   4.760   4.775   4.776   4.801   4.802   4.844   4.868
170 A'  106 A"  171 A'  172 A'  107 A"  173 A'  174 A'  108 A"                 
  4.876   4.917   4.992   5.011   5.034   5.051   5.121   5.153
175 A'  176 A'  109 A"  110 A"  177 A'  178 A'  179 A'  111 A"                 
  5.161   5.188   5.233   5.245   5.255   5.333   5.377   5.474
180 A'  112 A"  181 A'  113 A"  182 A'  183 A'  184 A'  185 A'                 
  5.548   5.572   5.580   5.582   5.638   5.751   5.953   6.088
114 A"  115 A"  186 A'  116 A"  187 A'  188 A'  189 A'  190 A'                 
  6.094   6.260   6.562   6.684   6.701   6.777   6.972   7.149
117 A"  191 A'  192 A'  118 A"  193 A'  119 A"  194 A'  120 A"                 
  7.296   7.340   7.342   7.411   7.481   7.753   7.992   8.004
121 A"  195 A'  122 A"  196 A'  123 A"  197 A'  198 A'  199 A'                 
  8.853   9.312  16.748  17.557
200 A'  201 A'  202 A'  203 A'                                                 
 
 Beta MOs, Restricted
 -- Occupied --                  
-68.775 -20.563 -11.222  -6.124  -4.230  -4.230  -4.230  -1.349
  1 A'    2 A'    3 A'    4 A'    1 A"    5 A'    6 A'    7 A'                 
 -0.965  -0.715  -0.704  -0.583  -0.580  -0.580  -0.506  -0.478
  8 A'    9 A'   10 A'   11 A'    2 A"   12 A'    3 A"   13 A'                 
 -0.478  -0.465
  4 A"   14 A'                                                                 
 -- Virtual --                   
  0.026   0.036   0.043   0.045   0.052   0.067   0.067   0.074
 15 A'   16 A'    5 A"   17 A'   18 A'    6 A"   19 A'   20 A'                 
  0.078   0.082   0.101   0.124   0.131   0.132   0.140   0.146
  7 A"   21 A'   22 A'   23 A'   24 A'    8 A"   25 A'   26 A'                 
  0.155   0.157   0.172   0.178   0.191   0.193   0.202   0.217
  9 A"   27 A'   10 A"   28 A'   11 A"   29 A'   30 A'   31 A'                 
  0.223   0.235   0.242   0.248   0.251   0.257   0.265   0.282
 12 A"   32 A'   33 A'   34 A'   13 A"   35 A'   36 A'   14 A"                 
  0.288   0.300   0.310   0.319   0.322   0.326   0.327   0.330
 15 A"   37 A'   38 A'   39 A'   16 A"   40 A'   41 A'   17 A"                 
  0.333   0.335   0.358   0.370   0.373   0.375   0.396   0.418
 42 A'   18 A"   43 A'   19 A"   44 A'   20 A"   21 A"   45 A'                 
  0.426   0.447   0.455   0.456   0.463   0.467   0.472   0.474
 46 A'   47 A'   48 A'   22 A"   49 A'   50 A'   23 A"   51 A'                 
  0.479   0.483   0.487   0.513   0.537   0.566   0.584   0.594
 52 A'   24 A"   53 A'   25 A"   54 A'   55 A'   56 A'   57 A'                 
  0.602   0.610   0.621   0.639   0.646   0.652   0.676   0.677
 58 A'   26 A"   59 A'   27 A"   28 A"   60 A'   61 A'   62 A'                 
  0.680   0.687   0.700   0.704   0.728   0.744   0.746   0.754
 29 A"   30 A"   31 A"   63 A'   64 A'   32 A"   65 A'   66 A'                 
  0.767   0.796   0.814   0.818   0.824   0.833   0.863   0.865
 33 A"   67 A'   68 A'   34 A"   69 A'   70 A'   71 A'   35 A"                 
  0.874   0.883   0.909   0.916   0.933   0.933   0.945   0.955
 72 A'   36 A"   73 A'   37 A"   38 A"   74 A'   75 A'   39 A"                 
  0.958   0.969   0.988   0.991   0.996   1.012   1.017   1.023
 76 A'   40 A"   41 A"   77 A'   78 A'   79 A'   42 A"   80 A'                 
  1.030   1.041   1.057   1.065   1.067   1.080   1.116   1.125
 43 A"   81 A'   82 A'   83 A'   44 A"   84 A'   85 A'   86 A'                 
  1.133   1.141   1.141   1.153   1.162   1.171   1.184   1.195
 45 A"   46 A"   87 A'   47 A"   88 A'   48 A"   89 A'   49 A"                 
  1.200   1.211   1.225   1.236   1.272   1.284   1.287   1.305
 90 A'   91 A'   50 A"   92 A'   93 A'   94 A'   51 A"   95 A'                 
  1.323   1.327   1.335   1.350   1.360   1.374   1.382   1.395
 96 A'   52 A"   53 A"   97 A'   54 A"   98 A'   55 A"   99 A'                 
  1.414   1.419   1.433   1.439   1.452   1.456   1.476   1.509
 56 A"  100 A'   57 A"  101 A'   58 A"  102 A'  103 A'   59 A"                 
  1.516   1.553   1.565   1.576   1.589   1.604   1.610   1.627
104 A'   60 A"  105 A'   61 A"  106 A'  107 A'  108 A'   62 A"                 
  1.650   1.675   1.681   1.710   1.715   1.727   1.758   1.786
 63 A"  109 A'  110 A'   64 A"  111 A'  112 A'   65 A"  113 A'                 
  1.815   1.841   1.858   1.870   1.911   1.918   1.921   1.978
114 A'   66 A"   67 A"  115 A'   68 A"  116 A'  117 A'  118 A'                 
  2.001   2.023   2.041   2.050   2.052   2.069   2.089   2.127
 69 A"  119 A'  120 A'   70 A"  121 A'  122 A'  123 A'   71 A"                 
  2.159   2.161   2.167   2.205   2.216   2.271   2.271   2.312
124 A'   72 A"  125 A'  126 A'   73 A"   74 A"  127 A'   75 A"                 
  2.359   2.365   2.365   2.433   2.487   2.487   2.549   2.576
128 A'   76 A"  129 A'  130 A'  131 A'   77 A"  132 A'   78 A"                 
  2.587   2.643   2.764   2.769   2.870   2.899   2.989   3.010
133 A'  134 A'  135 A'   79 A"  136 A'  137 A'   80 A"  138 A'                 
  3.091   3.105   3.217   3.357   3.410   3.414   3.466   3.598
 81 A"  139 A'  140 A'  141 A'  142 A'   82 A"  143 A'   83 A"                 
  3.609   3.623   3.668   3.678   3.706   3.713   3.735   3.783
 84 A"  144 A'   85 A"  145 A'   86 A"  146 A'  147 A'  148 A'                 
  3.845   3.875   3.943   3.944   3.948   3.985   4.030   4.036
 87 A"  149 A'   88 A"  150 A'  151 A'   89 A"   90 A"  152 A'                 
  4.057   4.083   4.093   4.123   4.125   4.134   4.134   4.156
 91 A"  153 A'   92 A"   93 A"  154 A'  155 A'   94 A"  156 A'                 
  4.198   4.198   4.216   4.222   4.235   4.237   4.261   4.272
157 A'   95 A"  158 A'   96 A"  159 A'  160 A'   97 A"  161 A'                 
  4.304   4.319   4.333   4.344   4.350   4.368   4.403   4.461
162 A'   98 A"   99 A"  163 A'  100 A"  164 A'  101 A"  165 A'                 
  4.484   4.521   4.525   4.534   4.552   4.593   4.599   4.615
102 A"  166 A'  103 A"  167 A'  104 A"  168 A'  105 A"  169 A'                 
  4.637   4.760   4.775   4.776   4.801   4.802   4.844   4.868
170 A'  106 A"  171 A'  172 A'  107 A"  173 A'  174 A'  108 A"                 
  4.876   4.917   4.992   5.011   5.034   5.051   5.121   5.153
175 A'  176 A'  109 A"  110 A"  177 A'  178 A'  179 A'  111 A"                 
  5.161   5.188   5.233   5.245   5.255   5.333   5.377   5.474
180 A'  112 A"  181 A'  113 A"  182 A'  183 A'  184 A'  185 A'                 
  5.548   5.572   5.580   5.582   5.638   5.751   5.953   6.088
114 A"  115 A"  186 A'  116 A"  187 A'  188 A'  189 A'  190 A'                 
  6.094   6.260   6.562   6.684   6.701   6.777   6.972   7.149
117 A"  191 A'  192 A'  118 A"  193 A'  119 A"  194 A'  120 A"                 
  7.296   7.340   7.342   7.411   7.481   7.753   7.992   8.004
121 A"  195 A'  122 A"  196 A'  123 A"  197 A'  198 A'  199 A'                 
  8.853   9.312  16.748  17.557
200 A'  201 A'  202 A'  203 A'                                                 
 --------------------------------------------------------------
 
          Ground-State Mulliken Net Atomic Charges

     Atom                 Charge (a.u.)
  ----------------------------------------
      1 O                    -0.522474
      2 H                     0.194013
      3 H                     0.326151
      4 Si                    1.318913
      5 H                    -0.376101
      6 H                    -0.376101
      7 H                    -0.389994
      8 C                    -1.012482
      9 H                     0.280642
     10 H                     0.276791
     11 H                     0.280642
  ----------------------------------------
  Sum of atomic charges =     0.000000

 -----------------------------------------------------------------
                    Cartesian Multipole Moments
 -----------------------------------------------------------------
    Charge (ESU x 10^10)
                 0.0000
    Dipole Moment (Debye)
         X      -1.0000      Y       1.5312      Z      -0.0000
       Tot       1.8288
    Quadrupole Moments (Debye-Ang)
        XX     -38.9435     XY       6.1717     YY     -28.6607
        XZ      -0.0000     YZ      -0.0000     ZZ     -30.6612
    Octopole Moments (Debye-Ang^2)
       XXX      -2.4196    XXY      23.6843    XYY      14.5719
       YYY      -0.1027    XXZ       0.0000    XYZ       0.0000
       YYZ      -0.0000    XZZ       7.2625    YZZ       2.1539
       ZZZ       0.0000
    Hexadecapole Moments (Debye-Ang^3)
      XXXX    -985.6585   XXXY      93.0900   XXYY    -147.8978
      XYYY       8.4268   YYYY     -63.2004   XXXZ      -0.0000
      XXYZ      -0.0000   XYYZ       0.0000   YYYZ      -0.0000
      XXZZ    -172.8103   XYZZ      -1.4470   YYZZ     -21.2131
      XZZZ      -0.0000   YZZZ      -0.0000   ZZZZ     -63.1468
 -----------------------------------------------------------------

 ---------------------------------------------------------------------
 *                     Fragment's binding energy                     *
 ---------------------------------------------------------------------
    Fragment           E(TOTAL)         E(CP-CORR)           DE(BSSE)
 ---------------------------------------------------------------------
           1     -76.3289736878     -76.3293218646       0.0003481768
           2    -330.6467076863    -330.6469538834       0.0002461970
     Complex    -406.9778010529
 ---------------------------------------------------------------------
  DE, kJ/mol      -5.5652828209      -4.0047358367
 ---------------------------------------------------------------------

Archival summary:
1\1\gm4.localdomain\SP\MP2\BasisUnspecified\i1118\xuedong\WedJul1011:34:122019WedJul1011:34:122019\0\\#,MP2,BasisUnspecified,\\0,1\Si\H,1,1.47981\H,1,1.47981,2,108.77\H,1,1.48021,2,108.696,3,-118.191,0\C,1,1.88156,2,110.211,3,120.926,0\H,5,1.08916,1,110.482,2,-179.846,0\H,5,1.08916,1,110.482,2,59.7863,0\H,5,1.08958,1,110.033,2,-60.0298,0\H,8,2.24333,5,90.4024,1,-180,0\O,9,0.959766,8,158.911,5,180,0\H,10,0.959291,9,103.478,8,-180,0\\HF=-406.382996\MP2=-406.977801\\@

 Total job time:  385.92s(wall), 749.76s(cpu) 
 Wed Jul 10 11:34:12 2019

        *************************************************************
        *                                                           *
        *  Thank you very much for using Q-Chem.  Have a nice day.  *
        *                                                           *
        *************************************************************


