
Running Job 1 of 1 ../qm_inp/SiH3CH3_water.con1.090.qcinp
qchem ../qm_inp/SiH3CH3_water.con1.090.qcinp_11410.0 /scratch/xuedong/qchem11410/ 1
/home/qwang/software/qchem5.1.2/exe/qcprog.exe_s ../qm_inp/SiH3CH3_water.con1.090.qcinp_11410.0 /scratch/xuedong/qchem11410/
Check license passed

                  Welcome to Q-Chem
     A Quantum Leap Into The Future Of Chemistry


 Q-Chem 5.1, Q-Chem, Inc., Pleasanton, CA (2018)

 Yihan Shao,  Zhengting Gan,  E. Epifanovsky,  A. T. B. Gilbert,  M. Wormit,  
 J. Kussmann,  A. W. Lange,  A. Behn,  Jia Deng,  Xintian Feng,  D. Ghosh,  
 M. Goldey,  P. R. Horn,  L. D. Jacobson,  I. Kaliman,  T. Kus,  A. Landau,  
 Jie Liu,  E. I. Proynov,  R. M. Richard,  R. P. Steele,  E. J. Sundstrom,  
 H. L. Woodcock III,  P. M. Zimmerman,  D. Zuev,  B. Albrecht,  E. Alguire,  
 S. A. Baeppler,  D. Barton,  Z. Benda,  Y. A. Bernard,  E. J. Berquist,  
 K. B. Bravaya,  H. Burton,  D. Casanova,  Chun-Min Chang,  Yunqing Chen,  
 A. Chien,  K. D. Closser,  M. P. Coons,  S. Coriani,  S. Dasgupta,  
 A. L. Dempwolff,  M. Diedenhofen,  Hainam Do,  R. G. Edgar,  Po-Tung Fang,  
 S. Faraji,  S. Fatehi,  Qingguo Feng,  K. D. Fenk,  J. Fosso-Tande,  
 J. Gayvert,  Qinghui Ge,  A. Ghysels,  G. Gidofalvi,  J. Gomes,  
 J. Gonthier,  A. Gunina,  D. Hait,  M. W. D. Hanson-Heine,  
 P. H. P. Harbach,  A. W. Hauser,  J. E. Herr,  E. G. Hohenstein,  
 Z. C. Holden,  Kerwin Hui,  B. C. Huynh,  T.-C. Jagau,  Hyunjun Ji,  
 B. Kaduk,  K. Khistyaev,  Jaehoon Kim,  P. Klunzinger,  K. Koh,  
 D. Kosenkov,  L. Koulias,  T. Kowalczyk,  C. M. Krauter,  A. Kunitsa,  
 Ka Un Lao,  A. Laurent,  K. V. Lawler,  Joonho Lee,  D. Lefrancois,  
 S. Lehtola,  D. S. Levine,  Yi-Pei Li,  You-Sheng Lin,  Fenglai Liu,  
 E. Livshits,  A. Luenser,  P. Manohar,  E. Mansoor,  S. F. Manzer,  
 Shan-Ping Mao,  Yuezhi Mao,  N. Mardirossian,  A. V. Marenich,  
 T. Markovich,  L. A. Martinez-Martinez,  S. A. Maurer,  N. J. Mayhall,  
 S. C. McKenzie,  J.-M. Mewes,  A. F. Morrison,  J. W. Mullinax,  K. Nanda,  
 T. S. Nguyen-Beck,  R. Olivares-Amaya,  J. A. Parkhill,  T. M. Perrine,  
 F. Plasser,  P. Pokhilko,  S. Prager,  A. Prociuk,  E. Ramos,  D. R. Rehn,  
 F. Rob,  M. Schneider,  N. Sergueev,  S. M. Sharada,  S. Sharma,  
 D. W. Small,  T. Stauch,  T. Stein,  Yu-Chuan Su,  A. J. W. Thom,  
 A. Tkatchenko,  T. Tsuchimochi,  N. M. Tubman,  L. Vogt,  M. L. Vidal,  
 O. Vydrov,  M. A. Watson,  J. Wenzel,  M. de Wergifosse,  T. A. Wesolowski,  
 A. White,  J. Witte,  A. Yamada,  Jun Yang,  K. Yao,  S. Yeganeh,  
 S. R. Yost,  Zhi-Qiang You,  A. Zech,  Igor Ying Zhang,  Xing Zhang,  
 Yan Zhao,  Ying Zhu,  B. R. Brooks,  G. K. L. Chan,  C. J. Cramer,  
 M. S. Gordon,  W. J. Hehre,  A. Klamt,  M. W. Schmidt,  C. D. Sherrill,  
 D. G. Truhlar,  A. Aspuru-Guzik,  R. Baer,  A. T. Bell,  N. A. Besley,  
 Jeng-Da Chai,  A. E. DePrince, III,  R. A. DiStasio Jr.,  A. Dreuw,  
 B. D. Dunietz,  T. R. Furlani,  Chao-Ping Hsu,  Yousung Jung,  Jing Kong,  
 D. S. Lambrecht,  WanZhen Liang,  C. Ochsenfeld,  V. A. Rassolov,  
 L. V. Slipchenko,  J. E. Subotnik,  T. Van Voorhis,  J. M. Herbert,  
 A. I. Krylov,  P. M. W. Gill,  M. Head-Gordon

 Contributors to earlier versions of Q-Chem not listed above: 
 R. D. Adamson,  B. Austin,  J. Baker,  G. J. O. Beran,  K. Brandhorst,  
 S. T. Brown,  E. F. C. Byrd,  A. K. Chakraborty,  C.-L. Cheng,  
 Siu Hung Chien,  D. M. Chipman,  D. L. Crittenden,  H. Dachsel,  
 R. J. Doerksen,  A. D. Dutoi,  L. Fusti-Molnar,  W. A. Goddard III,  
 A. Golubeva-Zadorozhnaya,  S. R. Gwaltney,  G. Hawkins,  A. Heyden,  
 S. Hirata,  G. Kedziora,  F. J. Keil,  C. Kelley,  Jihan Kim,  R. A. King,  
 R. Z. Khaliullin,  P. P. Korambath,  W. Kurlancheek,  A. M. Lee,  M. S. Lee,  
 S. V. Levchenko,  Ching Yeh Lin,  D. Liotard,  R. C. Lochan,  I. Lotan,  
 P. E. Maslen,  N. Nair,  D. P. O'Neill,  D. Neuhauser,  E. Neuscamman,  
 C. M. Oana,  R. Olson,  B. Peters,  R. Peverati,  P. A. Pieniazek,  
 Y. M. Rhee,  J. Ritchie,  M. A. Rohrdanz,  E. Rosta,  N. J. Russ,  
 H. F. Schaefer III,  N. E. Schultz,  N. Shenvi,  A. C. Simmonett,  A. Sodt,  
 D. Stuck,  K. S. Thanthiriwatte,  V. Vanovschi,  Tao Wang,  A. Warshel,  
 C. F. Williams,  Q. Wu,  X. Xu,  W. Zhang

 Please cite Q-Chem as follows:
 Y. Shao et al., Mol. Phys. 113, 184-215 (2015)
 DOI: 10.1080/00268976.2014.952696

 Q-Chem 5.1.2 for Intel X86 EM64T Linux

 Parts of Q-Chem use Armadillo 8.300.2 (Tropical Shenanigans).
 http://arma.sourceforge.net/

 Q-Chem begins on Wed Jul 10 11:14:38 2019  

Host: 
0

     Scratch files written to /scratch/xuedong/qchem11410//
 Dec218 |scratch|qcdevops|jenkins|workspace|build_RNUM 6581   
Processing $rem in /home/qwang/software/qchem5.1.2/config/preferences.
 MEM_TOTAL  4000 
Core orbitals will be frozen
Input Ideriv = 1
Curr. Ideriv = -1
Max.  Ideriv = 1

Checking the input file for inconsistencies... 	...done.

--------------------------------------------------------------
User input:
--------------------------------------------------------------
$molecule
0 1
--
0 1
O     3.417192278    -0.078854989     0.000000000
H     3.621539415     0.858418795     0.000000000
H     2.457629173    -0.098605673     0.000000000
--
0 1
Si    -1.672617968    -0.031193867     0.000000000
H    -2.151397254    -0.747704235     1.203009641
H    -2.151397254    -0.747704235    -1.203009641
H    -2.247445223     1.332841123     0.000000000
C     0.206954001     0.055378216     0.000000000
H     0.564312865     0.579692333    -0.885246536
H     0.626912156    -0.950018454     0.000000000
H     0.564312865     0.579692333     0.885246536
$end

$rem
BASIS = aug-cc-pVTZ
JOB_TYPE  =  BSSE
METHOD  =  MP2
SCF_CONVERGENCE  =  7
SCF_MAX_CYCLES  =  200
$end

--------------------------------------------------------------
 ----------------------------------------------------------------
             Standard Nuclear Orientation (Angstroms)
    I     Atom           X                Y                Z
 ----------------------------------------------------------------
    1      O       3.2370161967    -0.1166029997    -0.0000000000
    2      H       3.4517050047     0.8183561514     0.0000000000
    3      H       2.2772934577    -0.1257521062    -0.0000000000
    4      Si     -1.8519569483    -0.0127172347    -0.0000000000
    5      H      -2.3386223676    -0.7238947666     1.2030096410
    6      H      -2.3386223676    -0.7238947666    -1.2030096410
    7      H      -2.4116805204     1.3575846845     0.0000000000
    8      C       0.0284566965     0.0530857799     0.0000000000
    9      H       0.3915858952     0.5734201301    -0.8852465360
   10      H       0.4372825258    -0.9568888522    -0.0000000000
   11      H       0.3915858952     0.5734201301     0.8852465360
 ----------------------------------------------------------------
 Molecular Point Group                 Cs    NOp =  2
 Largest Abelian Subgroup              Cs    NOp =  2
 Nuclear Repulsion Energy =   105.2700840994 hartrees
 There are       18 alpha and       18 beta electrons
 Requested basis set is aug-cc-pVTZ
 There are 116 shells and 326 basis functions

 Total QAlloc Memory Limit   4000 MB
 Mega-Array Size       188 MB
 MEM_STATIC part       192 MB

                       Distance Matrix (Angstroms)
             O (  1)   H (  2)   H (  3)   Si(  4)   H (  5)   H (  6)
   H (  2)  0.959291
   H (  3)  0.959766  1.506845
   Si(  4)  5.090033  5.368381  4.130797
   H (  5)  5.736182  6.111764  4.807461  1.479814
   H (  6)  5.736182  6.111764  4.807461  1.479814  2.406019
   H (  7)  5.837894  5.888128  4.918004  1.480209  2.405229  2.405229
   C (  8)  3.213043  3.507744  2.255937  1.881565  2.766585  2.766585
   H (  9)  3.058802  3.194994  2.197361  2.482076  3.673946  3.039414
   H ( 10)  2.923113  3.498319  2.019017  2.476303  3.034331  3.034331
   H ( 11)  3.058802  3.194994  2.197361  2.482076  3.039414  3.673946
             H (  7)   C (  8)   H (  9)   H ( 10)
   C (  8)  2.766945
   H (  9)  3.042512  1.089161
   H ( 10)  3.670610  1.089581  1.768501
   H ( 11)  3.042512  1.089161  1.770493  1.768501
 
 A cutoff of  1.0D-10 yielded   6314 shell pairs
 There are     49378 function pairs (     63295 Cartesian)
 
 -------------------------------------------------------
 OpenMP Integral Computing Module                       
 Release: version 1.0, May 2013, Q-Chem Inc. Pittsburgh 
 -------------------------------------------------------
 Integral Job Info:
 Integral job number is                      11
 Integral operator is                         1
 short-range coefficients                     0
 long-range coefficients              100000000
 Omega coefficients                           0
 if combine SR and LR in K                    0
 Integral screening is                        0
 Integral computing path is                   2
 max size of driver memory is            800000
 size of driver memory is                776718
 size of scratch memory is             29531563
 max col of scratch BK array              10000
 max len of scratch array in speh3          662
 max len of scratch index in speh4           32
 max int batch size is                      520
 min int batch size is                       52
 fixed nKL is                                31
 max L of basis functions is                  3
 order of int derivative is                   0
 number of shells is                        116
 number of basis is                         369
 number of cartesian basis is               369
 number of contracted shell pairs          6314
 number of primitive shell pairs          16954
 maxK2 (contraction) of shell pair          169
 max number of K2 of shell pair               1
 max number of CS2 of shell pair           1104
 max number of PS2 of shell pair           1144
 mem total for path MDJ                  663852
 -------------------------------------------------------
 Smallest overlap matrix eigenvalue = 1.19E-05

 Scale SEOQF with 1.000000e-01/1.000000e-01/1.000000e-01

 Standard Electronic Orientation quadrupole field applied
 Nucleus-field energy     =     0.0000000058 hartrees
 Guess MOs from converged MOs on fragments

-----------------------------------------------------------------
 SCF on fragment 1 out of 2
/home/qwang/software/qchem5.1.2/exe/qcprog.exe /scratch/xuedong/qchem11410/Frg1.input /scratch/xuedong/qchem11410/Frg1/ > /dev/null 
 SCF on fragment 2 out of 2
/home/qwang/software/qchem5.1.2/exe/qcprog.exe /scratch/xuedong/qchem11410/Frg2.input /scratch/xuedong/qchem11410/Frg2/ > /dev/null 
-----------------------------------------------------------------
 Done with SCF on isolated fragments
-----------------------------------------------------------------

 User-specified occupied guess orbitals will be used
 A restricted Hartree-Fock SCF calculation will be
 performed using Pulay DIIS extrapolation
 SCF converges when DIIS error is below 1.0E-07
 using 6 threads for integral computing
 -------------------------------------------------------
 OpenMP Integral computing Module                
 Release: version 1.0, May 2013, Q-Chem Inc. Pittsburgh 
 -------------------------------------------------------
 ---------------------------------------
  Cycle       Energy         DIIS Error
 ---------------------------------------
    1    -406.3788845111      3.30E-04
    2    -406.3810227870      6.91E-05
    3    -406.3811373668      2.37E-05
    4    -406.3811484254      9.43E-06
    5    -406.3811503064      3.11E-06
    6    -406.3811505877      7.11E-07
    7    -406.3811506017      1.78E-07
    8    -406.3811506025      6.36E-08 Convergence criterion met
 ---------------------------------------
 SCF time:  CPU 254.91 s  wall 42.63 s

-----------------------------------------------------------------
 SCF CP correction for fragment 1 out of 2
/home/qwang/software/qchem5.1.2/exe/qcprog.exe /scratch/xuedong/qchem11410/Frg1.input /scratch/xuedong/qchem11410/Frg1BSSE/ > /dev/null 
 SCF CP correction for fragment 2 out of 2
/home/qwang/software/qchem5.1.2/exe/qcprog.exe /scratch/xuedong/qchem11410/Frg2.input /scratch/xuedong/qchem11410/Frg2BSSE/ > /dev/null 
-----------------------------------------------------------------
 Done with counterpoise correction on fragments
-----------------------------------------------------------------

 SCF   energy in the final basis set = -406.38115060
 Total energy in the final basis set = -406.38115060
 
 Components of the MP2 correlation energy:
        aaaa  correlation energy =        -0.0613075646 au
        abab  correlation energy =        -0.4734085587 au
        bbbb  correlation energy =        -0.0613075646 au
        non-Brillouin singles    =        -0.0000000000 au

 Total  MP2   correlation energy =                    -0.59602369 au
        MP2         total energy =                  -406.97717429 au
 
 --------------------------------------------------------------
             Orbital Energies (a.u.) and Symmetries
 --------------------------------------------------------------
 
 Alpha MOs, Restricted
 -- Occupied --                  
-68.776 -20.559 -11.224  -6.125  -4.231  -4.231  -4.231  -1.347
  1 A'    2 A'    3 A'    4 A'    1 A"    5 A'    6 A'    7 A'                 
 -0.969  -0.718  -0.701  -0.583  -0.583  -0.581  -0.503  -0.479
  8 A'    9 A'   10 A'   11 A'    2 A"   12 A'    3 A"   13 A'                 
 -0.479  -0.466
  4 A"   14 A'                                                                 
 -- Virtual --                   
  0.026   0.036   0.043   0.045   0.053   0.067   0.067   0.074
 15 A'   16 A'    5 A"   17 A'   18 A'    6 A"   19 A'   20 A'                 
  0.078   0.082   0.101   0.124   0.131   0.132   0.139   0.147
  7 A"   21 A'   22 A'   23 A'   24 A'    8 A"   25 A'   26 A'                 
  0.155   0.157   0.173   0.180   0.191   0.195   0.204   0.217
  9 A"   27 A'   10 A"   28 A'   11 A"   29 A'   30 A'   31 A'                 
  0.223   0.236   0.244   0.248   0.253   0.260   0.271   0.284
 12 A"   32 A'   33 A'   34 A'   13 A"   35 A'   36 A'   14 A"                 
  0.288   0.302   0.312   0.321   0.322   0.326   0.330   0.330
 15 A"   37 A'   38 A'   39 A'   16 A"   40 A'   41 A'   17 A"                 
  0.338   0.339   0.363   0.373   0.375   0.376   0.404   0.418
 18 A"   42 A'   43 A'   19 A"   20 A"   44 A'   21 A"   45 A'                 
  0.423   0.454   0.459   0.459   0.464   0.470   0.470   0.476
 46 A'   47 A'   48 A'   22 A"   49 A'   50 A'   23 A"   51 A'                 
  0.484   0.489   0.493   0.516   0.540   0.574   0.581   0.597
 52 A'   24 A"   53 A'   25 A"   54 A'   55 A'   56 A'   57 A'                 
  0.604   0.614   0.617   0.638   0.645   0.654   0.673   0.679
 58 A'   26 A"   59 A'   27 A"   28 A"   60 A'   61 A'   29 A"                 
  0.679   0.689   0.704   0.708   0.724   0.748   0.757   0.770
 62 A'   30 A"   31 A"   63 A'   64 A'   32 A"   65 A'   66 A'                 
  0.773   0.788   0.814   0.819   0.827   0.846   0.864   0.865
 33 A"   67 A'   68 A'   34 A"   69 A'   70 A'   71 A'   35 A"                 
  0.879   0.883   0.919   0.925   0.927   0.939   0.946   0.963
 72 A'   36 A"   73 A'   37 A"   38 A"   74 A'   75 A'   39 A"                 
  0.966   0.983   0.991   0.998   1.002   1.018   1.031   1.031
 76 A'   40 A"   77 A'   41 A"   78 A'   79 A'   42 A"   80 A'                 
  1.044   1.049   1.066   1.074   1.077   1.087   1.130   1.138
 43 A"   81 A'   44 A"   82 A'   83 A'   84 A'   85 A'   45 A"                 
  1.148   1.151   1.161   1.167   1.178   1.189   1.195   1.196
 46 A"   86 A'   47 A"   87 A'   88 A'   48 A"   89 A'   49 A"                 
  1.212   1.219   1.240   1.250   1.268   1.282   1.287   1.293
 90 A'   91 A'   50 A"   92 A'   93 A'   94 A'   51 A"   95 A'                 
  1.333   1.334   1.359   1.368   1.376   1.382   1.383   1.408
 52 A"   96 A'   53 A"   97 A'   98 A'   54 A"   55 A"   99 A'                 
  1.416   1.424   1.435   1.449   1.473   1.475   1.487   1.511
 56 A"  100 A'   57 A"  101 A'  102 A'   58 A"  103 A'   59 A"                 
  1.519   1.546   1.559   1.590   1.608   1.610   1.623   1.632
104 A'  105 A'   60 A"  106 A'   61 A"  107 A'  108 A'   62 A"                 
  1.664   1.692   1.698   1.722   1.724   1.756   1.797   1.816
 63 A"  109 A'  110 A'   64 A"  111 A'  112 A'   65 A"  113 A'                 
  1.834   1.857   1.860   1.882   1.914   1.923   1.937   1.998
 66 A"  114 A'   67 A"  115 A'  116 A'   68 A"  117 A'  118 A'                 
  2.001   2.029   2.047   2.064   2.067   2.079   2.110   2.134
 69 A"  119 A'  120 A'  121 A'   70 A"  122 A'  123 A'   71 A"                 
  2.167   2.177   2.217   2.218   2.230   2.272   2.276   2.331
124 A'   72 A"  125 A'   73 A"  126 A'   74 A"  127 A'   75 A"                 
  2.364   2.375   2.390   2.456   2.507   2.526   2.578   2.608
128 A'  129 A'   76 A"  130 A'  131 A'   77 A"  132 A'   78 A"                 
  2.612   2.695   2.781   2.787   2.915   2.944   3.006   3.034
133 A'  134 A'   79 A"  135 A'  136 A'  137 A'   80 A"  138 A'                 
  3.097   3.132   3.231   3.404   3.418   3.423   3.475   3.595
 81 A"  139 A'  140 A'  141 A'   82 A"  142 A'  143 A'   83 A"                 
  3.644   3.644   3.675   3.695   3.703   3.716   3.773   3.823
144 A'   84 A"   85 A"  145 A'   86 A"  146 A'  147 A'  148 A'                 
  3.857   3.893   3.948   3.948   3.984   4.014   4.037   4.054
 87 A"  149 A'   88 A"  150 A'   89 A"  151 A'   90 A"  152 A'                 
  4.058   4.092   4.099   4.125   4.127   4.132   4.145   4.156
 91 A"  153 A'   92 A"   93 A"  154 A'  155 A'   94 A"  156 A'                 
  4.185   4.202   4.213   4.216   4.249   4.260   4.289   4.294
157 A'   95 A"  158 A'   96 A"  159 A'  160 A'   97 A"  161 A'                 
  4.302   4.329   4.332   4.339   4.368   4.381   4.416   4.483
162 A'   98 A"   99 A"  163 A'  100 A"  164 A'  101 A"  165 A'                 
  4.517   4.520   4.523   4.527   4.537   4.594   4.598   4.632
166 A'  102 A"  167 A'  103 A"  104 A"  168 A'  105 A"  169 A'                 
  4.707   4.772   4.777   4.781   4.803   4.805   4.844   4.872
170 A'  106 A"  171 A'  172 A'  173 A'  107 A"  174 A'  108 A"                 
  4.878   4.991   5.015   5.023   5.043   5.072   5.133   5.136
175 A'  109 A"  176 A'  110 A"  177 A'  178 A'  179 A'  111 A"                 
  5.171   5.223   5.243   5.244   5.271   5.301   5.448   5.539
180 A'  112 A"  113 A"  181 A'  182 A'  183 A'  184 A'  185 A'                 
  5.547   5.573   5.592   5.611   5.642   5.839   5.952   6.092
114 A"  115 A"  186 A'  116 A"  187 A'  188 A'  189 A'  190 A'                 
  6.095   6.287   6.578   6.685   6.711   6.809   6.998   7.166
117 A"  191 A'  192 A'  118 A"  193 A'  119 A"  194 A'  120 A"                 
  7.305   7.361   7.363   7.436   7.517   7.781   8.021   8.048
121 A"  122 A"  195 A'  196 A'  123 A"  197 A'  198 A'  199 A'                 
  8.875   9.351  16.707  17.863
200 A'  201 A'  202 A'  203 A'                                                 
 
 Beta MOs, Restricted
 -- Occupied --                  
-68.776 -20.559 -11.224  -6.125  -4.231  -4.231  -4.231  -1.347
  1 A'    2 A'    3 A'    4 A'    1 A"    5 A'    6 A'    7 A'                 
 -0.969  -0.718  -0.701  -0.583  -0.583  -0.581  -0.503  -0.479
  8 A'    9 A'   10 A'   11 A'    2 A"   12 A'    3 A"   13 A'                 
 -0.479  -0.466
  4 A"   14 A'                                                                 
 -- Virtual --                   
  0.026   0.036   0.043   0.045   0.053   0.067   0.067   0.074
 15 A'   16 A'    5 A"   17 A'   18 A'    6 A"   19 A'   20 A'                 
  0.078   0.082   0.101   0.124   0.131   0.132   0.139   0.147
  7 A"   21 A'   22 A'   23 A'   24 A'    8 A"   25 A'   26 A'                 
  0.155   0.157   0.173   0.180   0.191   0.195   0.204   0.217
  9 A"   27 A'   10 A"   28 A'   11 A"   29 A'   30 A'   31 A'                 
  0.223   0.236   0.244   0.248   0.253   0.260   0.271   0.284
 12 A"   32 A'   33 A'   34 A'   13 A"   35 A'   36 A'   14 A"                 
  0.288   0.302   0.312   0.321   0.322   0.326   0.330   0.330
 15 A"   37 A'   38 A'   39 A'   16 A"   40 A'   41 A'   17 A"                 
  0.338   0.339   0.363   0.373   0.375   0.376   0.404   0.418
 18 A"   42 A'   43 A'   19 A"   20 A"   44 A'   21 A"   45 A'                 
  0.423   0.454   0.459   0.459   0.464   0.470   0.470   0.476
 46 A'   47 A'   48 A'   22 A"   49 A'   50 A'   23 A"   51 A'                 
  0.484   0.489   0.493   0.516   0.540   0.574   0.581   0.597
 52 A'   24 A"   53 A'   25 A"   54 A'   55 A'   56 A'   57 A'                 
  0.604   0.614   0.617   0.638   0.645   0.654   0.673   0.679
 58 A'   26 A"   59 A'   27 A"   28 A"   60 A'   61 A'   29 A"                 
  0.679   0.689   0.704   0.708   0.724   0.748   0.757   0.770
 62 A'   30 A"   31 A"   63 A'   64 A'   32 A"   65 A'   66 A'                 
  0.773   0.788   0.814   0.819   0.827   0.846   0.864   0.865
 33 A"   67 A'   68 A'   34 A"   69 A'   70 A'   71 A'   35 A"                 
  0.879   0.883   0.919   0.925   0.927   0.939   0.946   0.963
 72 A'   36 A"   73 A'   37 A"   38 A"   74 A'   75 A'   39 A"                 
  0.966   0.983   0.991   0.998   1.002   1.018   1.031   1.031
 76 A'   40 A"   77 A'   41 A"   78 A'   79 A'   42 A"   80 A'                 
  1.044   1.049   1.066   1.074   1.077   1.087   1.130   1.138
 43 A"   81 A'   44 A"   82 A'   83 A'   84 A'   85 A'   45 A"                 
  1.148   1.151   1.161   1.167   1.178   1.189   1.195   1.196
 46 A"   86 A'   47 A"   87 A'   88 A'   48 A"   89 A'   49 A"                 
  1.212   1.219   1.240   1.250   1.268   1.282   1.287   1.293
 90 A'   91 A'   50 A"   92 A'   93 A'   94 A'   51 A"   95 A'                 
  1.333   1.334   1.359   1.368   1.376   1.382   1.383   1.408
 52 A"   96 A'   53 A"   97 A'   98 A'   54 A"   55 A"   99 A'                 
  1.416   1.424   1.435   1.449   1.473   1.475   1.487   1.511
 56 A"  100 A'   57 A"  101 A'  102 A'   58 A"  103 A'   59 A"                 
  1.519   1.546   1.559   1.590   1.608   1.610   1.623   1.632
104 A'  105 A'   60 A"  106 A'   61 A"  107 A'  108 A'   62 A"                 
  1.664   1.692   1.698   1.722   1.724   1.756   1.797   1.816
 63 A"  109 A'  110 A'   64 A"  111 A'  112 A'   65 A"  113 A'                 
  1.834   1.857   1.860   1.882   1.914   1.923   1.937   1.998
 66 A"  114 A'   67 A"  115 A'  116 A'   68 A"  117 A'  118 A'                 
  2.001   2.029   2.047   2.064   2.067   2.079   2.110   2.134
 69 A"  119 A'  120 A'  121 A'   70 A"  122 A'  123 A'   71 A"                 
  2.167   2.177   2.217   2.218   2.230   2.272   2.276   2.331
124 A'   72 A"  125 A'   73 A"  126 A'   74 A"  127 A'   75 A"                 
  2.364   2.375   2.390   2.456   2.507   2.526   2.578   2.608
128 A'  129 A'   76 A"  130 A'  131 A'   77 A"  132 A'   78 A"                 
  2.612   2.695   2.781   2.787   2.915   2.944   3.006   3.034
133 A'  134 A'   79 A"  135 A'  136 A'  137 A'   80 A"  138 A'                 
  3.097   3.132   3.231   3.404   3.418   3.423   3.475   3.595
 81 A"  139 A'  140 A'  141 A'   82 A"  142 A'  143 A'   83 A"                 
  3.644   3.644   3.675   3.695   3.703   3.716   3.773   3.823
144 A'   84 A"   85 A"  145 A'   86 A"  146 A'  147 A'  148 A'                 
  3.857   3.893   3.948   3.948   3.984   4.014   4.037   4.054
 87 A"  149 A'   88 A"  150 A'   89 A"  151 A'   90 A"  152 A'                 
  4.058   4.092   4.099   4.125   4.127   4.132   4.145   4.156
 91 A"  153 A'   92 A"   93 A"  154 A'  155 A'   94 A"  156 A'                 
  4.185   4.202   4.213   4.216   4.249   4.260   4.289   4.294
157 A'   95 A"  158 A'   96 A"  159 A'  160 A'   97 A"  161 A'                 
  4.302   4.329   4.332   4.339   4.368   4.381   4.416   4.483
162 A'   98 A"   99 A"  163 A'  100 A"  164 A'  101 A"  165 A'                 
  4.517   4.520   4.523   4.527   4.537   4.594   4.598   4.632
166 A'  102 A"  167 A'  103 A"  104 A"  168 A'  105 A"  169 A'                 
  4.707   4.772   4.777   4.781   4.803   4.805   4.844   4.872
170 A'  106 A"  171 A'  172 A'  173 A'  107 A"  174 A'  108 A"                 
  4.878   4.991   5.015   5.023   5.043   5.072   5.133   5.136
175 A'  109 A"  176 A'  110 A"  177 A'  178 A'  179 A'  111 A"                 
  5.171   5.223   5.243   5.244   5.271   5.301   5.448   5.539
180 A'  112 A"  113 A"  181 A'  182 A'  183 A'  184 A'  185 A'                 
  5.547   5.573   5.592   5.611   5.642   5.839   5.952   6.092
114 A"  115 A"  186 A'  116 A"  187 A'  188 A'  189 A'  190 A'                 
  6.095   6.287   6.578   6.685   6.711   6.809   6.998   7.166
117 A"  191 A'  192 A'  118 A"  193 A'  119 A"  194 A'  120 A"                 
  7.305   7.361   7.363   7.436   7.517   7.781   8.021   8.048
121 A"  122 A"  195 A'  196 A'  123 A"  197 A'  198 A'  199 A'                 
  8.875   9.351  16.707  17.863
200 A'  201 A'  202 A'  203 A'                                                 
 --------------------------------------------------------------
 
          Ground-State Mulliken Net Atomic Charges

     Atom                 Charge (a.u.)
  ----------------------------------------
      1 O                    -0.541303
      2 H                     0.187881
      3 H                     0.352093
      4 Si                    1.312002
      5 H                    -0.371246
      6 H                    -0.371246
      7 H                    -0.384249
      8 C                    -0.975351
      9 H                     0.266692
     10 H                     0.258036
     11 H                     0.266692
  ----------------------------------------
  Sum of atomic charges =     0.000000

 -----------------------------------------------------------------
                    Cartesian Multipole Moments
 -----------------------------------------------------------------
    Charge (ESU x 10^10)
                 0.0000
    Dipole Moment (Debye)
         X      -1.0990      Y       1.5274      Z      -0.0000
       Tot       1.8817
    Quadrupole Moments (Debye-Ang)
        XX     -38.6388     XY       5.8996     YY     -28.6177
        XZ       0.0000     YZ      -0.0000     ZZ     -30.6081
    Octopole Moments (Debye-Ang^2)
       XXX      -1.7837    XXY      21.5518    XYY      13.8935
       YYY      -0.1384    XXZ      -0.0000    XYZ      -0.0000
       YYZ      -0.0000    XZZ       6.9750    YZZ       2.1486
       ZZZ      -0.0000
    Hexadecapole Moments (Debye-Ang^3)
      XXXX    -899.0780   XXXY      80.9232   XXYY    -137.2863
      XYYY       7.9891   YYYY     -63.0323   XXXZ       0.0000
      XXYZ      -0.0000   XYYZ       0.0000   YYYZ       0.0000
      XXZZ    -159.6729   XYZZ      -1.3054   YYZZ     -21.1504
      XZZZ      -0.0000   YZZZ      -0.0000   ZZZZ     -62.9629
 -----------------------------------------------------------------

 ---------------------------------------------------------------------
 *                     Fragment's binding energy                     *
 ---------------------------------------------------------------------
    Fragment           E(TOTAL)         E(CP-CORR)           DE(BSSE)
 ---------------------------------------------------------------------
           1     -76.3289736878     -76.3294134471       0.0004397593
           2    -330.6467076863    -330.6470305299       0.0003228436
     Complex    -406.9771742904
 ---------------------------------------------------------------------
  DE, kJ/mol      -3.9196982356      -1.9174605033
 ---------------------------------------------------------------------

Archival summary:
1\1\gm4.localdomain\SP\MP2\BasisUnspecified\i1118\xuedong\WedJul1011:21:162019WedJul1011:21:162019\0\\#,MP2,BasisUnspecified,\\0,1\Si\H,1,1.47981\H,1,1.47981,2,108.77\H,1,1.48021,2,108.696,3,-118.191,0\C,1,1.88156,2,110.211,3,120.926,0\H,5,1.08916,1,110.482,2,-179.846,0\H,5,1.08916,1,110.482,2,59.7863,0\H,5,1.08958,1,110.033,2,-60.0298,0\H,8,2.01902,5,87.7287,1,-180,0\O,9,0.959766,8,156.237,5,180,0\H,10,0.959291,9,103.478,8,-180,0\\HF=-406.381151\MP2=-406.977174\\@

 Total job time:  397.76s(wall), 779.43s(cpu) 
 Wed Jul 10 11:21:16 2019

        *************************************************************
        *                                                           *
        *  Thank you very much for using Q-Chem.  Have a nice day.  *
        *                                                           *
        *************************************************************


