
Running Job 1 of 1 ../qm_inp/SiH3CH3_SiH3CH3_con2.100.qcinp
qchem ../qm_inp/SiH3CH3_SiH3CH3_con2.100.qcinp_31245.0 /scratch/xuedong/qchem31245/ 1
/home/qwang/software/qchem5.1.2/exe/qcprog.exe_s ../qm_inp/SiH3CH3_SiH3CH3_con2.100.qcinp_31245.0 /scratch/xuedong/qchem31245/
Check license passed

                  Welcome to Q-Chem
     A Quantum Leap Into The Future Of Chemistry


 Q-Chem 5.1, Q-Chem, Inc., Pleasanton, CA (2018)

 Yihan Shao,  Zhengting Gan,  E. Epifanovsky,  A. T. B. Gilbert,  M. Wormit,  
 J. Kussmann,  A. W. Lange,  A. Behn,  Jia Deng,  Xintian Feng,  D. Ghosh,  
 M. Goldey,  P. R. Horn,  L. D. Jacobson,  I. Kaliman,  T. Kus,  A. Landau,  
 Jie Liu,  E. I. Proynov,  R. M. Richard,  R. P. Steele,  E. J. Sundstrom,  
 H. L. Woodcock III,  P. M. Zimmerman,  D. Zuev,  B. Albrecht,  E. Alguire,  
 S. A. Baeppler,  D. Barton,  Z. Benda,  Y. A. Bernard,  E. J. Berquist,  
 K. B. Bravaya,  H. Burton,  D. Casanova,  Chun-Min Chang,  Yunqing Chen,  
 A. Chien,  K. D. Closser,  M. P. Coons,  S. Coriani,  S. Dasgupta,  
 A. L. Dempwolff,  M. Diedenhofen,  Hainam Do,  R. G. Edgar,  Po-Tung Fang,  
 S. Faraji,  S. Fatehi,  Qingguo Feng,  K. D. Fenk,  J. Fosso-Tande,  
 J. Gayvert,  Qinghui Ge,  A. Ghysels,  G. Gidofalvi,  J. Gomes,  
 J. Gonthier,  A. Gunina,  D. Hait,  M. W. D. Hanson-Heine,  
 P. H. P. Harbach,  A. W. Hauser,  J. E. Herr,  E. G. Hohenstein,  
 Z. C. Holden,  Kerwin Hui,  B. C. Huynh,  T.-C. Jagau,  Hyunjun Ji,  
 B. Kaduk,  K. Khistyaev,  Jaehoon Kim,  P. Klunzinger,  K. Koh,  
 D. Kosenkov,  L. Koulias,  T. Kowalczyk,  C. M. Krauter,  A. Kunitsa,  
 Ka Un Lao,  A. Laurent,  K. V. Lawler,  Joonho Lee,  D. Lefrancois,  
 S. Lehtola,  D. S. Levine,  Yi-Pei Li,  You-Sheng Lin,  Fenglai Liu,  
 E. Livshits,  A. Luenser,  P. Manohar,  E. Mansoor,  S. F. Manzer,  
 Shan-Ping Mao,  Yuezhi Mao,  N. Mardirossian,  A. V. Marenich,  
 T. Markovich,  L. A. Martinez-Martinez,  S. A. Maurer,  N. J. Mayhall,  
 S. C. McKenzie,  J.-M. Mewes,  A. F. Morrison,  J. W. Mullinax,  K. Nanda,  
 T. S. Nguyen-Beck,  R. Olivares-Amaya,  J. A. Parkhill,  T. M. Perrine,  
 F. Plasser,  P. Pokhilko,  S. Prager,  A. Prociuk,  E. Ramos,  D. R. Rehn,  
 F. Rob,  M. Schneider,  N. Sergueev,  S. M. Sharada,  S. Sharma,  
 D. W. Small,  T. Stauch,  T. Stein,  Yu-Chuan Su,  A. J. W. Thom,  
 A. Tkatchenko,  T. Tsuchimochi,  N. M. Tubman,  L. Vogt,  M. L. Vidal,  
 O. Vydrov,  M. A. Watson,  J. Wenzel,  M. de Wergifosse,  T. A. Wesolowski,  
 A. White,  J. Witte,  A. Yamada,  Jun Yang,  K. Yao,  S. Yeganeh,  
 S. R. Yost,  Zhi-Qiang You,  A. Zech,  Igor Ying Zhang,  Xing Zhang,  
 Yan Zhao,  Ying Zhu,  B. R. Brooks,  G. K. L. Chan,  C. J. Cramer,  
 M. S. Gordon,  W. J. Hehre,  A. Klamt,  M. W. Schmidt,  C. D. Sherrill,  
 D. G. Truhlar,  A. Aspuru-Guzik,  R. Baer,  A. T. Bell,  N. A. Besley,  
 Jeng-Da Chai,  A. E. DePrince, III,  R. A. DiStasio Jr.,  A. Dreuw,  
 B. D. Dunietz,  T. R. Furlani,  Chao-Ping Hsu,  Yousung Jung,  Jing Kong,  
 D. S. Lambrecht,  WanZhen Liang,  C. Ochsenfeld,  V. A. Rassolov,  
 L. V. Slipchenko,  J. E. Subotnik,  T. Van Voorhis,  J. M. Herbert,  
 A. I. Krylov,  P. M. W. Gill,  M. Head-Gordon

 Contributors to earlier versions of Q-Chem not listed above: 
 R. D. Adamson,  B. Austin,  J. Baker,  G. J. O. Beran,  K. Brandhorst,  
 S. T. Brown,  E. F. C. Byrd,  A. K. Chakraborty,  C.-L. Cheng,  
 Siu Hung Chien,  D. M. Chipman,  D. L. Crittenden,  H. Dachsel,  
 R. J. Doerksen,  A. D. Dutoi,  L. Fusti-Molnar,  W. A. Goddard III,  
 A. Golubeva-Zadorozhnaya,  S. R. Gwaltney,  G. Hawkins,  A. Heyden,  
 S. Hirata,  G. Kedziora,  F. J. Keil,  C. Kelley,  Jihan Kim,  R. A. King,  
 R. Z. Khaliullin,  P. P. Korambath,  W. Kurlancheek,  A. M. Lee,  M. S. Lee,  
 S. V. Levchenko,  Ching Yeh Lin,  D. Liotard,  R. C. Lochan,  I. Lotan,  
 P. E. Maslen,  N. Nair,  D. P. O'Neill,  D. Neuhauser,  E. Neuscamman,  
 C. M. Oana,  R. Olson,  B. Peters,  R. Peverati,  P. A. Pieniazek,  
 Y. M. Rhee,  J. Ritchie,  M. A. Rohrdanz,  E. Rosta,  N. J. Russ,  
 H. F. Schaefer III,  N. E. Schultz,  N. Shenvi,  A. C. Simmonett,  A. Sodt,  
 D. Stuck,  K. S. Thanthiriwatte,  V. Vanovschi,  Tao Wang,  A. Warshel,  
 C. F. Williams,  Q. Wu,  X. Xu,  W. Zhang

 Please cite Q-Chem as follows:
 Y. Shao et al., Mol. Phys. 113, 184-215 (2015)
 DOI: 10.1080/00268976.2014.952696

 Q-Chem 5.1.2 for Intel X86 EM64T Linux

 Parts of Q-Chem use Armadillo 8.300.2 (Tropical Shenanigans).
 http://arma.sourceforge.net/

 Q-Chem begins on Wed Jul  3 10:37:59 2019  

Host: 
0

     Scratch files written to /scratch/xuedong/qchem31245//
 Dec218 |scratch|qcdevops|jenkins|workspace|build_RNUM 6581   
Processing $rem in /home/qwang/software/qchem5.1.2/config/preferences.
 MEM_TOTAL  4000 
Core orbitals will be frozen
Input Ideriv = 1
Curr. Ideriv = -1
Max.  Ideriv = 1

Checking the input file for inconsistencies... 	...done.

--------------------------------------------------------------
User input:
--------------------------------------------------------------
$molecule
0 1
--
0 1
Si     2.014998435     0.321073490    -0.133289128
H     1.503542539     1.072357510     1.035552051
H     1.215154919    -0.917779499    -0.277040965
H     1.816801357     1.147049434    -1.346132733
C     3.832693717    -0.093902041     0.092465048
H     4.212738567    -0.647371106    -0.764407842
H     3.983063110    -0.702802282     0.982191073
H     4.425687573     0.812791426     0.199197617
--
0 1
Si    -2.007639979    -0.303347598    -0.009091460
H    -1.777870678    -1.472982898    -0.887414720
H    -1.485224549    -0.618872085     1.339908505
H    -1.241307976     0.844059582    -0.549106820
C    -3.837787352     0.110749145     0.071976453
H    -4.011909334     0.972424426     0.713978868
H    -4.406536753    -0.727838747     0.470005839
H    -4.226133474     0.342734779    -0.918178717
$end

$rem
BASIS = aug-cc-pVTZ
JOB_TYPE  =  BSSE
METHOD  =  MP2
SCF_CONVERGENCE  =  7
SCF_MAX_CYCLES  =  200
$end

--------------------------------------------------------------
 ----------------------------------------------------------------
             Standard Nuclear Orientation (Angstroms)
    I     Atom           X                Y                Z
 ----------------------------------------------------------------
    1      Si     -2.0240241643     0.2563373009     0.0463265516
    2      H      -1.5288920927     0.7785101005    -1.2476534764
    3      H      -1.1827977053    -0.8998300038     0.4346385104
    4      H      -1.8652803696     1.3131901016     1.0712024062
    5      C      -3.8241289355    -0.2601122093    -0.0954073315
    6      H      -4.1921093265    -0.6457479809     0.8537337155
    7      H      -3.9454490868    -1.0384979196    -0.8466595956
    8      H      -4.4473920381     0.5854900839    -0.3811107867
    9      Si      2.0188508419    -0.2356285951     0.0551473756
   10      H       1.8223237505    -1.2151177551     1.1479742162
   11      H       1.5195035548    -0.8311771766    -1.2051100041
   12      H       1.2083479731     0.9679005579     0.3551927756
   13      C       3.8341008222     0.2195033687    -0.1036289779
   14      H       3.9836859416     0.9422759328    -0.9037501987
   15      H       4.4351563318    -0.6604567871    -0.3261943042
   16      H       4.2054982601     0.6571920093     0.8213196167
 ----------------------------------------------------------------
 Molecular Point Group                 C1    NOp =  1
 Largest Abelian Subgroup              C1    NOp =  1
 Nuclear Repulsion Energy =   196.9303585116 hartrees
 There are       26 alpha and       26 beta electrons
 Requested basis set is aug-cc-pVTZ
 There are 168 shells and 468 basis functions

 Total QAlloc Memory Limit   4000 MB
 Mega-Array Size       188 MB
 MEM_STATIC part       192 MB
 A cutoff of  1.0D-10 yielded  11773 shell pairs
 There are     88371 function pairs (    112208 Cartesian)
 
 -------------------------------------------------------
 OpenMP Integral Computing Module                       
 Release: version 1.0, May 2013, Q-Chem Inc. Pittsburgh 
 -------------------------------------------------------
 Integral Job Info:
 Integral job number is                      11
 Integral operator is                         1
 short-range coefficients                     0
 long-range coefficients              100000000
 Omega coefficients                           0
 if combine SR and LR in K                    0
 Integral screening is                        0
 Integral computing path is                   2
 max size of driver memory is            800000
 size of driver memory is                776718
 size of scratch memory is             29531563
 max col of scratch BK array              10000
 max len of scratch array in speh3          662
 max len of scratch index in speh4           32
 max int batch size is                      520
 min int batch size is                       52
 fixed nKL is                                31
 max L of basis functions is                  3
 order of int derivative is                   0
 number of shells is                        168
 number of basis is                         528
 number of cartesian basis is               528
 number of contracted shell pairs         11773
 number of primitive shell pairs          32713
 maxK2 (contraction) of shell pair          169
 max number of K2 of shell pair               1
 max number of CS2 of shell pair           2194
 max number of PS2 of shell pair           3276
 mem total for path MDJ                  793020
 -------------------------------------------------------
 Smallest overlap matrix eigenvalue = 1.07E-05

 Scale SEOQF with 1.000000e-01/1.000000e-01/1.000000e-01

 Standard Electronic Orientation quadrupole field applied
 Nucleus-field energy     =     0.0000000146 hartrees
 Guess MOs from converged MOs on fragments

-----------------------------------------------------------------
 SCF on fragment 1 out of 2
/home/qwang/software/qchem5.1.2/exe/qcprog.exe /scratch/xuedong/qchem31245/Frg1.input /scratch/xuedong/qchem31245/Frg1/ > /dev/null 
 SCF on fragment 2 out of 2
/home/qwang/software/qchem5.1.2/exe/qcprog.exe /scratch/xuedong/qchem31245/Frg2.input /scratch/xuedong/qchem31245/Frg2/ > /dev/null 
-----------------------------------------------------------------
 Done with SCF on isolated fragments
-----------------------------------------------------------------

 User-specified occupied guess orbitals will be used
 A restricted Hartree-Fock SCF calculation will be
 performed using Pulay DIIS extrapolation
 SCF converges when DIIS error is below 1.0E-07
 using 6 threads for integral computing
 -------------------------------------------------------
 OpenMP Integral computing Module                
 Release: version 1.0, May 2013, Q-Chem Inc. Pittsburgh 
 -------------------------------------------------------
 ---------------------------------------
  Cycle       Energy         DIIS Error
 ---------------------------------------
    1    -660.6446338093      1.06E-04
    2    -660.6451070275      1.55E-05
    3    -660.6451269070      3.12E-06
    4    -660.6451278041      8.00E-07
    5    -660.6451278489      2.72E-07
    6    -660.6451278551      9.47E-08 Convergence criterion met
 ---------------------------------------
 SCF time:  CPU 720.66 s  wall 120.11 s

-----------------------------------------------------------------
 SCF CP correction for fragment 1 out of 2
/home/qwang/software/qchem5.1.2/exe/qcprog.exe /scratch/xuedong/qchem31245/Frg1.input /scratch/xuedong/qchem31245/Frg1BSSE/ > /dev/null 
 SCF CP correction for fragment 2 out of 2
/home/qwang/software/qchem5.1.2/exe/qcprog.exe /scratch/xuedong/qchem31245/Frg2.input /scratch/xuedong/qchem31245/Frg2BSSE/ > /dev/null 
-----------------------------------------------------------------
 Done with counterpoise correction on fragments
-----------------------------------------------------------------

 SCF   energy in the final basis set = -660.64512786
 Total energy in the final basis set = -660.64512786
 
 Components of the MP2 correlation energy:
        aaaa  correlation energy =        -0.0563967161 au
        abab  correlation energy =        -0.5377371759 au
        bbbb  correlation energy =        -0.0563967161 au
        non-Brillouin singles    =        -0.0000000000 au

 Total  MP2   correlation energy =                    -0.65053061 au
        MP2         total energy =                  -661.29565846 au
 
 --------------------------------------------------------------
 
                    Orbital Energies (a.u.)
 --------------------------------------------------------------
 
 Alpha MOs
 -- Occupied --
-68.764 -68.764 -11.206 -11.206  -6.112  -6.112  -4.219  -4.219
 -4.219  -4.219  -4.218  -4.218  -0.948  -0.948  -0.704  -0.690
 -0.563  -0.563  -0.563  -0.563  -0.471  -0.470  -0.468  -0.463
 -0.455  -0.445
 -- Virtual --
  0.028   0.032   0.043   0.043   0.048   0.051   0.051   0.066
  0.068   0.071   0.074   0.078   0.091   0.093   0.102   0.106
  0.107   0.122   0.130   0.131   0.138   0.144   0.146   0.151
  0.152   0.157   0.160   0.165   0.170   0.173   0.176   0.181
  0.201   0.202   0.213   0.214   0.216   0.229   0.230   0.247
  0.250   0.259   0.263   0.264   0.271   0.294   0.295   0.305
  0.306   0.309   0.314   0.321   0.327   0.331   0.340   0.341
  0.343   0.348   0.356   0.358   0.360   0.360   0.364   0.367
  0.371   0.374   0.382   0.385   0.392   0.392   0.398   0.400
  0.413   0.420   0.426   0.431   0.436   0.439   0.443   0.452
  0.456   0.462   0.462   0.470   0.471   0.484   0.488   0.489
  0.502   0.505   0.511   0.512   0.530   0.534   0.552   0.553
  0.572   0.574   0.602   0.607   0.609   0.624   0.628   0.635
  0.639   0.658   0.659   0.669   0.673   0.680   0.683   0.684
  0.684   0.692   0.692   0.696   0.703   0.708   0.714   0.721
  0.733   0.738   0.742   0.759   0.766   0.779   0.792   0.833
  0.835   0.843   0.844   0.854   0.861   0.877   0.887   0.891
  0.898   0.901   0.903   0.909   0.929   0.949   0.953   0.955
  0.957   0.964   0.966   0.969   0.986   0.988   1.009   1.015
  1.022   1.035   1.043   1.049   1.052   1.059   1.062   1.084
  1.086   1.097   1.103   1.105   1.110   1.111   1.133   1.138
  1.149   1.152   1.157   1.158   1.162   1.166   1.169   1.182
  1.182   1.202   1.204   1.211   1.229   1.232   1.233   1.241
  1.248   1.250   1.251   1.265   1.275   1.277   1.288   1.291
  1.301   1.305   1.311   1.319   1.326   1.337   1.360   1.364
  1.367   1.376   1.386   1.394   1.413   1.418   1.421   1.425
  1.434   1.438   1.443   1.446   1.448   1.450   1.462   1.468
  1.487   1.490   1.498   1.516   1.518   1.526   1.544   1.554
  1.563   1.568   1.583   1.586   1.599   1.629   1.633   1.635
  1.648   1.656   1.667   1.669   1.686   1.690   1.699   1.707
  1.729   1.736   1.751   1.756   1.784   1.796   1.836   1.850
  1.856   1.856   1.869   1.874   1.910   1.912   1.920   1.933
  1.950   2.006   2.006   2.010   2.018   2.032   2.034   2.038
  2.043   2.051   2.057   2.069   2.103   2.118   2.137   2.140
  2.152   2.167   2.171   2.182   2.184   2.203   2.214   2.230
  2.237   2.239   2.288   2.290   2.305   2.312   2.345   2.361
  2.368   2.378   2.392   2.432   2.753   2.756   3.098   3.108
  3.120   3.145   3.177   3.187   3.342   3.361   3.417   3.419
  3.419   3.424   3.465   3.557   3.564   3.570   3.570   3.599
  3.615   3.616   3.640   3.651   3.662   3.666   3.667   3.669
  3.727   3.754   3.784   3.824   3.832   3.836   3.837   3.852
  3.945   3.949   3.951   3.952   4.008   4.036   4.039   4.050
  4.058   4.085   4.090   4.094   4.100   4.116   4.118   4.119
  4.121   4.133   4.137   4.138   4.164   4.176   4.178   4.183
  4.187   4.194   4.218   4.220   4.223   4.230   4.237   4.251
  4.262   4.267   4.279   4.301   4.344   4.344   4.346   4.354
  4.359   4.381   4.424   4.459   4.509   4.518   4.518   4.522
  4.539   4.544   4.558   4.568   4.597   4.603   4.607   4.615
  4.629   4.632   4.762   4.775   4.782   4.786   4.809   4.812
  4.818   4.829   4.840   4.851   4.861   4.863   4.879   4.887
  4.967   4.983   5.008   5.010   5.026   5.028   5.036   5.041
  5.109   5.114   5.163   5.170   5.172   5.173   5.243   5.247
  5.257   5.260   5.346   5.359   5.566   5.567   5.604   5.605
  5.605   5.607   5.624   5.629   5.947   5.949   6.105   6.109
  6.110   6.113   6.698   6.700   6.701   6.705   9.204   9.215
 17.038  17.098
 --------------------------------------------------------------
 
          Ground-State Mulliken Net Atomic Charges

     Atom                 Charge (a.u.)
  ----------------------------------------
      1 Si                    1.415672
      2 H                    -0.352499
      3 H                    -0.313447
      4 H                    -0.370931
      5 C                    -1.196569
      6 H                     0.271078
      7 H                     0.286667
      8 H                     0.260509
      9 Si                    1.428080
     10 H                    -0.368921
     11 H                    -0.350569
     12 H                    -0.318667
     13 C                    -1.205683
     14 H                     0.284330
     15 H                     0.260372
     16 H                     0.270579
  ----------------------------------------
  Sum of atomic charges =     0.000000

 -----------------------------------------------------------------
                    Cartesian Multipole Moments
 -----------------------------------------------------------------
    Charge (ESU x 10^10)
                 0.0000
    Dipole Moment (Debye)
         X      -0.0005      Y      -0.0245      Z      -0.1119
       Tot       0.1145
    Quadrupole Moments (Debye-Ang)
        XX     -40.5909     XY       0.5901     YY     -46.6257
        XZ      -0.0083     YZ      -0.0022     ZZ     -46.5335
    Octopole Moments (Debye-Ang^2)
       XXX      -0.1443    XXY       0.0082    XYY       0.1927
       YYY      -0.5128    XXZ      -0.0428    XYZ       1.1895
       YYZ      -2.5141    XZZ      -0.0220    YZZ       0.1275
       ZZZ       0.7989
    Hexadecapole Moments (Debye-Ang^3)
      XXXX   -2162.2744   XXXY     -17.1228   XXYY    -370.1954
      XYYY       3.5214   YYYY    -132.7487   XXXZ       0.6289
      XXYZ      -0.4537   XYYZ       0.6796   YYYZ      -0.0399
      XXZZ    -369.0338   XYZZ      12.0018   YYZZ     -41.8520
      XZZZ      -1.0428   YZZZ       0.0275   ZZZZ    -115.6854
 -----------------------------------------------------------------

 ---------------------------------------------------------------------
 *                     Fragment's binding energy                     *
 ---------------------------------------------------------------------
    Fragment           E(TOTAL)         E(CP-CORR)           DE(BSSE)
 ---------------------------------------------------------------------
           1    -330.6467391755    -330.6470725741       0.0003333986
           2    -330.6467390294    -330.6470774256       0.0003383962
     Complex    -661.2956584632
 ---------------------------------------------------------------------
  DE, kJ/mol      -5.7243362822      -3.9605181342
 ---------------------------------------------------------------------

Archival summary:
1\1\mm2.localdomain\SP\MP2\BasisUnspecified\i2212\xuedong\WedJul311:07:132019WedJul311:07:132019\0\\#,MP2,BasisUnspecified,\\0,1\Si\H,1,1.48063\H,1,1.48064,2,108.504\H,1,1.4817,2,108.336,3,-117.462,0\C,1,1.87816,2,110.577,3,121.399,0\H,5,1.08856,1,110.845,2,60.0131,0\H,5,1.08859,1,110.815,2,-179.959,0\H,5,1.08864,1,110.795,2,-59.9914,0\H,4,3.03518,1,86.3538,2,60.1907,0\Si,9,1.48161,4,87.7218,1,-153.041,0\H,10,1.48061,9,108.324,4,58.8366,0\H,10,1.48071,9,108.342,4,-58.6781,0\C,10,1.87808,9,110.451,4,-179.916,0\H,13,1.08857,10,110.826,9,-59.9862,0\H,13,1.08857,10,110.831,9,60.0438,0\H,13,1.08864,10,110.791,9,-179.971,0\\HF=-660.645128\MP2=-661.295658\\@

 Total job time:  1753.95s(wall), 3608.13s(cpu) 
 Wed Jul  3 11:07:13 2019

        *************************************************************
        *                                                           *
        *  Thank you very much for using Q-Chem.  Have a nice day.  *
        *                                                           *
        *************************************************************


