
Running Job 1 of 1 ../qm_inp/SiH3CH3_water.con2.100.qcinp
qchem ../qm_inp/SiH3CH3_water.con2.100.qcinp_11867.0 /scratch/xuedong/qchem11867/ 1
/home/qwang/software/qchem5.1.2/exe/qcprog.exe_s ../qm_inp/SiH3CH3_water.con2.100.qcinp_11867.0 /scratch/xuedong/qchem11867/
Check license passed

                  Welcome to Q-Chem
     A Quantum Leap Into The Future Of Chemistry


 Q-Chem 5.1, Q-Chem, Inc., Pleasanton, CA (2018)

 Yihan Shao,  Zhengting Gan,  E. Epifanovsky,  A. T. B. Gilbert,  M. Wormit,  
 J. Kussmann,  A. W. Lange,  A. Behn,  Jia Deng,  Xintian Feng,  D. Ghosh,  
 M. Goldey,  P. R. Horn,  L. D. Jacobson,  I. Kaliman,  T. Kus,  A. Landau,  
 Jie Liu,  E. I. Proynov,  R. M. Richard,  R. P. Steele,  E. J. Sundstrom,  
 H. L. Woodcock III,  P. M. Zimmerman,  D. Zuev,  B. Albrecht,  E. Alguire,  
 S. A. Baeppler,  D. Barton,  Z. Benda,  Y. A. Bernard,  E. J. Berquist,  
 K. B. Bravaya,  H. Burton,  D. Casanova,  Chun-Min Chang,  Yunqing Chen,  
 A. Chien,  K. D. Closser,  M. P. Coons,  S. Coriani,  S. Dasgupta,  
 A. L. Dempwolff,  M. Diedenhofen,  Hainam Do,  R. G. Edgar,  Po-Tung Fang,  
 S. Faraji,  S. Fatehi,  Qingguo Feng,  K. D. Fenk,  J. Fosso-Tande,  
 J. Gayvert,  Qinghui Ge,  A. Ghysels,  G. Gidofalvi,  J. Gomes,  
 J. Gonthier,  A. Gunina,  D. Hait,  M. W. D. Hanson-Heine,  
 P. H. P. Harbach,  A. W. Hauser,  J. E. Herr,  E. G. Hohenstein,  
 Z. C. Holden,  Kerwin Hui,  B. C. Huynh,  T.-C. Jagau,  Hyunjun Ji,  
 B. Kaduk,  K. Khistyaev,  Jaehoon Kim,  P. Klunzinger,  K. Koh,  
 D. Kosenkov,  L. Koulias,  T. Kowalczyk,  C. M. Krauter,  A. Kunitsa,  
 Ka Un Lao,  A. Laurent,  K. V. Lawler,  Joonho Lee,  D. Lefrancois,  
 S. Lehtola,  D. S. Levine,  Yi-Pei Li,  You-Sheng Lin,  Fenglai Liu,  
 E. Livshits,  A. Luenser,  P. Manohar,  E. Mansoor,  S. F. Manzer,  
 Shan-Ping Mao,  Yuezhi Mao,  N. Mardirossian,  A. V. Marenich,  
 T. Markovich,  L. A. Martinez-Martinez,  S. A. Maurer,  N. J. Mayhall,  
 S. C. McKenzie,  J.-M. Mewes,  A. F. Morrison,  J. W. Mullinax,  K. Nanda,  
 T. S. Nguyen-Beck,  R. Olivares-Amaya,  J. A. Parkhill,  T. M. Perrine,  
 F. Plasser,  P. Pokhilko,  S. Prager,  A. Prociuk,  E. Ramos,  D. R. Rehn,  
 F. Rob,  M. Schneider,  N. Sergueev,  S. M. Sharada,  S. Sharma,  
 D. W. Small,  T. Stauch,  T. Stein,  Yu-Chuan Su,  A. J. W. Thom,  
 A. Tkatchenko,  T. Tsuchimochi,  N. M. Tubman,  L. Vogt,  M. L. Vidal,  
 O. Vydrov,  M. A. Watson,  J. Wenzel,  M. de Wergifosse,  T. A. Wesolowski,  
 A. White,  J. Witte,  A. Yamada,  Jun Yang,  K. Yao,  S. Yeganeh,  
 S. R. Yost,  Zhi-Qiang You,  A. Zech,  Igor Ying Zhang,  Xing Zhang,  
 Yan Zhao,  Ying Zhu,  B. R. Brooks,  G. K. L. Chan,  C. J. Cramer,  
 M. S. Gordon,  W. J. Hehre,  A. Klamt,  M. W. Schmidt,  C. D. Sherrill,  
 D. G. Truhlar,  A. Aspuru-Guzik,  R. Baer,  A. T. Bell,  N. A. Besley,  
 Jeng-Da Chai,  A. E. DePrince, III,  R. A. DiStasio Jr.,  A. Dreuw,  
 B. D. Dunietz,  T. R. Furlani,  Chao-Ping Hsu,  Yousung Jung,  Jing Kong,  
 D. S. Lambrecht,  WanZhen Liang,  C. Ochsenfeld,  V. A. Rassolov,  
 L. V. Slipchenko,  J. E. Subotnik,  T. Van Voorhis,  J. M. Herbert,  
 A. I. Krylov,  P. M. W. Gill,  M. Head-Gordon

 Contributors to earlier versions of Q-Chem not listed above: 
 R. D. Adamson,  B. Austin,  J. Baker,  G. J. O. Beran,  K. Brandhorst,  
 S. T. Brown,  E. F. C. Byrd,  A. K. Chakraborty,  C.-L. Cheng,  
 Siu Hung Chien,  D. M. Chipman,  D. L. Crittenden,  H. Dachsel,  
 R. J. Doerksen,  A. D. Dutoi,  L. Fusti-Molnar,  W. A. Goddard III,  
 A. Golubeva-Zadorozhnaya,  S. R. Gwaltney,  G. Hawkins,  A. Heyden,  
 S. Hirata,  G. Kedziora,  F. J. Keil,  C. Kelley,  Jihan Kim,  R. A. King,  
 R. Z. Khaliullin,  P. P. Korambath,  W. Kurlancheek,  A. M. Lee,  M. S. Lee,  
 S. V. Levchenko,  Ching Yeh Lin,  D. Liotard,  R. C. Lochan,  I. Lotan,  
 P. E. Maslen,  N. Nair,  D. P. O'Neill,  D. Neuhauser,  E. Neuscamman,  
 C. M. Oana,  R. Olson,  B. Peters,  R. Peverati,  P. A. Pieniazek,  
 Y. M. Rhee,  J. Ritchie,  M. A. Rohrdanz,  E. Rosta,  N. J. Russ,  
 H. F. Schaefer III,  N. E. Schultz,  N. Shenvi,  A. C. Simmonett,  A. Sodt,  
 D. Stuck,  K. S. Thanthiriwatte,  V. Vanovschi,  Tao Wang,  A. Warshel,  
 C. F. Williams,  Q. Wu,  X. Xu,  W. Zhang

 Please cite Q-Chem as follows:
 Y. Shao et al., Mol. Phys. 113, 184-215 (2015)
 DOI: 10.1080/00268976.2014.952696

 Q-Chem 5.1.2 for Intel X86 EM64T Linux

 Parts of Q-Chem use Armadillo 8.300.2 (Tropical Shenanigans).
 http://arma.sourceforge.net/

 Q-Chem begins on Wed Jul 10 11:29:06 2019  

Host: 
0

     Scratch files written to /scratch/xuedong/qchem11867//
 Dec218 |scratch|qcdevops|jenkins|workspace|build_RNUM 6581   
Processing $rem in /home/qwang/software/qchem5.1.2/config/preferences.
 MEM_TOTAL  4000 
Core orbitals will be frozen
Input Ideriv = 1
Curr. Ideriv = -1
Max.  Ideriv = 1

Checking the input file for inconsistencies... 	...done.

--------------------------------------------------------------
User input:
--------------------------------------------------------------
$molecule
0 1
--
0 1
O     2.682746157     0.252087281     0.000000000
H     3.094283083     1.118876774     0.000000000
H     3.423599950    -0.357576759     0.000000000
--
0 1
Si    -0.456816672    -0.011267898     0.000000000
H     0.060405830    -0.689012196    -1.208291248
H     0.060405830    -0.689012196     1.208291248
H    -0.017078837     1.401913519     0.000000000
C    -2.339206887    -0.077513181     0.000000000
H    -2.746574647     0.416484054     0.880759883
H    -2.691929639    -1.107749675     0.000000000
H    -2.746574647     0.416484054    -0.880759883
$end

$rem
BASIS = aug-cc-pVTZ
JOB_TYPE  =  BSSE
METHOD  =  MP2
SCF_CONVERGENCE  =  7
SCF_MAX_CYCLES  =  200
$end

--------------------------------------------------------------
 ----------------------------------------------------------------
             Standard Nuclear Orientation (Angstroms)
    I     Atom           X                Y                Z
 ----------------------------------------------------------------
    1      O       2.7048671205     0.0056073112     0.0000000000
    2      H       3.1773880517     0.8407184632     0.0000000000
    3      H       3.4001848365    -0.6555188932    -0.0000000000
    4      Si     -0.4454930263    -0.0323617992    -0.0000000000
    5      H       0.0218941783    -0.7453875008    -1.2082912480
    6      H       0.0218941783    -0.7453875008     1.2082912480
    7      H       0.0942638683     1.3457214986     0.0000000000
    8      C      -2.3277969100     0.0362927577     0.0000000000
    9      H      -2.6987626040     0.5581799236     0.8807598830
   10      H      -2.7533530412    -0.9660557609    -0.0000000000
   11      H      -2.6987626040     0.5581799236    -0.8807598830
 ----------------------------------------------------------------
 Molecular Point Group                 Cs    NOp =  2
 Largest Abelian Subgroup              Cs    NOp =  2
 Nuclear Repulsion Energy =   108.7718876117 hartrees
 There are       18 alpha and       18 beta electrons
 Requested basis set is aug-cc-pVTZ
 There are 116 shells and 326 basis functions

 Total QAlloc Memory Limit   4000 MB
 Mega-Array Size       188 MB
 MEM_STATIC part       192 MB

                       Distance Matrix (Angstroms)
             O (  1)   H (  2)   H (  3)   Si(  4)   H (  5)   H (  6)
   H (  2)  0.959524
   H (  3)  0.959455  1.512734
   Si(  4)  3.150589  3.726599  3.895839
   H (  5)  3.036825  3.732672  3.588996  1.478791
   H (  6)  3.036825  3.732672  3.588996  1.478791  2.416582
   H (  7)  2.934477  3.124209  3.864463  1.480017  2.416183  2.416183
   C (  8)  5.032758  5.563646  5.769608  1.883556  2.755366  2.755366
   H (  9)  5.502753  5.948505  6.280602  2.490322  3.669523  3.034557
   H ( 10)  5.544033  6.199849  6.161368  2.489579  3.034907  3.034907
   H ( 11)  5.502753  5.948505  6.280602  2.490322  3.034557  3.669523
             H (  7)   C (  8)   H (  9)   H ( 10)
   C (  8)  2.753358
   H (  9)  3.032648  1.088908
   H ( 10)  3.667865  1.088945  1.761253
   H ( 11)  3.032648  1.088908  1.761520  1.761253
 
 A cutoff of  1.0D-10 yielded   6197 shell pairs
 There are     48131 function pairs (     61584 Cartesian)
 
 -------------------------------------------------------
 OpenMP Integral Computing Module                       
 Release: version 1.0, May 2013, Q-Chem Inc. Pittsburgh 
 -------------------------------------------------------
 Integral Job Info:
 Integral job number is                      11
 Integral operator is                         1
 short-range coefficients                     0
 long-range coefficients              100000000
 Omega coefficients                           0
 if combine SR and LR in K                    0
 Integral screening is                        0
 Integral computing path is                   2
 max size of driver memory is            800000
 size of driver memory is                776718
 size of scratch memory is             29531563
 max col of scratch BK array              10000
 max len of scratch array in speh3          662
 max len of scratch index in speh4           32
 max int batch size is                      520
 min int batch size is                       52
 fixed nKL is                                31
 max L of basis functions is                  3
 order of int derivative is                   0
 number of shells is                        116
 number of basis is                         369
 number of cartesian basis is               369
 number of contracted shell pairs          6197
 number of primitive shell pairs          16954
 maxK2 (contraction) of shell pair          169
 max number of K2 of shell pair               1
 max number of CS2 of shell pair           1092
 max number of PS2 of shell pair           1248
 mem total for path MDJ                  659484
 -------------------------------------------------------
 Smallest overlap matrix eigenvalue = 1.32E-05

 Scale SEOQF with 1.000000e-01/1.000000e-01/1.000000e-01

 Standard Electronic Orientation quadrupole field applied
 Nucleus-field energy     =     0.0000000048 hartrees
 Guess MOs from converged MOs on fragments

-----------------------------------------------------------------
 SCF on fragment 1 out of 2
/home/qwang/software/qchem5.1.2/exe/qcprog.exe /scratch/xuedong/qchem11867/Frg1.input /scratch/xuedong/qchem11867/Frg1/ > /dev/null 
 SCF on fragment 2 out of 2
/home/qwang/software/qchem5.1.2/exe/qcprog.exe /scratch/xuedong/qchem11867/Frg2.input /scratch/xuedong/qchem11867/Frg2/ > /dev/null 
-----------------------------------------------------------------
 Done with SCF on isolated fragments
-----------------------------------------------------------------

 User-specified occupied guess orbitals will be used
 A restricted Hartree-Fock SCF calculation will be
 performed using Pulay DIIS extrapolation
 SCF converges when DIIS error is below 1.0E-07
 using 6 threads for integral computing
 -------------------------------------------------------
 OpenMP Integral computing Module                
 Release: version 1.0, May 2013, Q-Chem Inc. Pittsburgh 
 -------------------------------------------------------
 ---------------------------------------
  Cycle       Energy         DIIS Error
 ---------------------------------------
    1    -406.3817463364      2.17E-04
    2    -406.3829579775      5.01E-05
    3    -406.3830288352      2.03E-05
    4    -406.3830355081      6.96E-06
    5    -406.3830365693      1.55E-06
    6    -406.3830366434      4.55E-07
    7    -406.3830366485      1.10E-07
    8    -406.3830366495      3.02E-08 Convergence criterion met
 ---------------------------------------
 SCF time:  CPU 254.42 s  wall 42.46 s

-----------------------------------------------------------------
 SCF CP correction for fragment 1 out of 2
/home/qwang/software/qchem5.1.2/exe/qcprog.exe /scratch/xuedong/qchem11867/Frg1.input /scratch/xuedong/qchem11867/Frg1BSSE/ > /dev/null 
 SCF CP correction for fragment 2 out of 2
/home/qwang/software/qchem5.1.2/exe/qcprog.exe /scratch/xuedong/qchem11867/Frg2.input /scratch/xuedong/qchem11867/Frg2BSSE/ > /dev/null 
-----------------------------------------------------------------
 Done with counterpoise correction on fragments
-----------------------------------------------------------------

 SCF   energy in the final basis set = -406.38303665
 Total energy in the final basis set = -406.38303665
 
 Components of the MP2 correlation energy:
        aaaa  correlation energy =        -0.0609945479 au
        abab  correlation energy =        -0.4727075926 au
        bbbb  correlation energy =        -0.0609945479 au
        non-Brillouin singles    =        -0.0000000000 au

 Total  MP2   correlation energy =                    -0.59469669 au
        MP2         total energy =                  -406.97773334 au
 
 --------------------------------------------------------------
             Orbital Energies (a.u.) and Symmetries
 --------------------------------------------------------------
 
 Alpha MOs, Restricted
 -- Occupied --                  
-68.750 -20.571 -11.193  -6.098  -4.204  -4.204  -4.204  -1.358
  1 A'    2 A'    3 A'    4 A'    5 A'    1 A"    6 A'    7 A'                 
 -0.935  -0.720  -0.684  -0.591  -0.551  -0.551  -0.516  -0.454
  8 A'    9 A'   10 A'   11 A'    2 A"   12 A'    3 A"   13 A'                 
 -0.453  -0.435
  4 A"   14 A'                                                                 
 -- Virtual --                   
  0.026   0.036   0.045   0.050   0.056   0.060   0.073   0.076
 15 A'   16 A'   17 A'    5 A"   18 A'   19 A'    6 A"   20 A'                 
  0.084   0.091   0.093   0.128   0.137   0.138   0.143   0.164
  7 A"   21 A'   22 A'   23 A'   24 A'    8 A"   25 A'   26 A'                 
  0.168   0.170   0.181   0.187   0.189   0.212   0.222   0.224
  9 A"   27 A'   28 A'   10 A"   29 A'   30 A'   31 A'   11 A"                 
  0.229   0.235   0.244   0.266   0.267   0.274   0.279   0.301
 12 A"   32 A'   33 A'   34 A'   13 A"   35 A'   14 A"   15 A"                 
  0.311   0.327   0.330   0.336   0.340   0.345   0.349   0.360
 36 A'   37 A'   38 A'   16 A"   39 A'   17 A"   40 A'   41 A'                 
  0.362   0.368   0.378   0.379   0.383   0.390   0.402   0.417
 42 A'   18 A"   43 A'   19 A"   44 A'   20 A"   45 A'   21 A"                 
  0.420   0.425   0.435   0.441   0.452   0.459   0.468   0.469
 46 A'   47 A'   22 A"   48 A'   49 A'   50 A'   23 A"   51 A'                 
  0.485   0.492   0.493   0.501   0.511   0.524   0.550   0.600
 52 A'   53 A'   24 A"   54 A'   25 A"   55 A'   56 A'   57 A'                 
  0.617   0.621   0.635   0.655   0.656   0.658   0.685   0.686
 58 A'   26 A"   59 A'   27 A"   60 A'   28 A"   61 A'   62 A'                 
  0.687   0.690   0.693   0.704   0.705   0.739   0.743   0.752
 29 A"   63 A'   30 A"   64 A'   31 A"   65 A'   32 A"   66 A'                 
  0.759   0.811   0.817   0.827   0.844   0.862   0.876   0.879
 67 A'   33 A"   68 A'   34 A"   69 A'   70 A'   71 A'   35 A"                 
  0.889   0.900   0.916   0.918   0.942   0.958   0.965   0.968
 72 A'   36 A"   37 A"   73 A'   38 A"   74 A'   75 A'   39 A"                 
  0.969   0.973   0.983   0.989   1.014   1.031   1.053   1.055
 76 A'   40 A"   77 A'   41 A"   78 A'   79 A'   42 A"   80 A'                 
  1.058   1.062   1.062   1.088   1.105   1.116   1.118   1.132
 81 A'   43 A"   82 A'   83 A'   84 A'   44 A"   85 A'   45 A"                 
  1.158   1.159   1.159   1.160   1.172   1.189   1.195   1.205
 86 A'   46 A"   47 A"   87 A'   88 A'   89 A'   48 A"   49 A"                 
  1.211   1.222   1.224   1.262   1.271   1.284   1.298   1.299
 90 A'   91 A'   50 A"   92 A'   51 A"   93 A'   52 A"   94 A'                 
  1.302   1.317   1.327   1.357   1.366   1.391   1.406   1.412
 95 A'   53 A"   96 A'   54 A"   97 A'   98 A'   55 A"   99 A'                 
  1.416   1.417   1.433   1.445   1.454   1.455   1.481   1.483
100 A'   56 A"  101 A'   57 A"   58 A"  102 A'  103 A'   59 A"                 
  1.510   1.539   1.543   1.574   1.595   1.612   1.642   1.648
104 A'  105 A'   60 A"  106 A'   61 A"  107 A'   62 A"  108 A'                 
  1.651   1.666   1.670   1.715   1.722   1.727   1.748   1.787
 63 A"  109 A'  110 A'   64 A"  111 A'   65 A"  112 A'  113 A'                 
  1.846   1.853   1.862   1.874   1.891   1.916   1.917   1.978
114 A'   66 A"  115 A'   67 A"  116 A'   68 A"  117 A'  118 A'                 
  2.005   2.005   2.016   2.054   2.055   2.063   2.107   2.125
119 A'   69 A"  120 A'  121 A'   70 A"  122 A'  123 A'  124 A'                 
  2.147   2.150   2.172   2.178   2.232   2.239   2.292   2.295
 71 A"  125 A'   72 A"  126 A'  127 A'   73 A"   74 A"  128 A'                 
  2.320   2.327   2.356   2.360   2.368   2.475   2.495   2.513
 75 A"   76 A"   77 A"  129 A'  130 A'   78 A"  131 A'  132 A'                 
  2.564   2.728   2.754   2.767   2.776   2.872   2.889   2.931
133 A'  134 A'  135 A'   79 A"  136 A'  137 A'   80 A"  138 A'                 
  3.125   3.127   3.154   3.355   3.425   3.427   3.510   3.574
139 A'   81 A"  140 A'  141 A'   82 A"  142 A'  143 A'   83 A"                 
  3.575   3.626   3.655   3.673   3.674   3.722   3.746   3.757
144 A'   84 A"  145 A'   85 A"  146 A'  147 A'   86 A"  148 A'                 
  3.842   3.842   3.860   3.954   3.957   4.006   4.027   4.062
149 A'   87 A"  150 A'   88 A"  151 A'   89 A"   90 A"   91 A"                 
  4.064   4.098   4.100   4.115   4.132   4.134   4.135   4.164
152 A'  153 A'   92 A"   93 A"   94 A"  154 A'  155 A'   95 A"                 
  4.167   4.181   4.207   4.222   4.225   4.245   4.252   4.279
156 A'  157 A'  158 A'   96 A"  159 A'   97 A"  160 A'  161 A'                 
  4.311   4.320   4.359   4.370   4.377   4.412   4.459   4.509
 98 A"  162 A'   99 A"  163 A'  100 A"  164 A'  101 A"  102 A"                 
  4.515   4.528   4.533   4.548   4.554   4.564   4.608   4.619
165 A'  166 A'  103 A"  167 A'  104 A"  168 A'  169 A'  170 A'                 
  4.621   4.773   4.782   4.783   4.826   4.831   4.868   4.884
105 A"  171 A'  172 A'  106 A"  173 A'  107 A"  174 A'  175 A'                 
  4.885   4.912   5.003   5.022   5.030   5.036   5.083   5.152
108 A"  176 A'  177 A'  109 A"  178 A'  110 A"  179 A'  111 A"                 
  5.159   5.175   5.175   5.239   5.263   5.318   5.358   5.378
180 A'  112 A"  181 A'  182 A'  113 A"  183 A'  184 A'  185 A'                 
  5.529   5.570   5.615   5.615   5.631   5.819   5.939   6.118
114 A"  115 A"  116 A"  186 A'  187 A'  188 A'  189 A'  117 A"                 
  6.118   6.273   6.598   6.707   6.709   6.739   6.959   7.153
190 A'  191 A'  192 A'  118 A"  193 A'  119 A"  194 A'  120 A"                 
  7.312   7.317   7.338   7.366   7.480   7.644   7.910   7.936
121 A"  195 A'  122 A"  123 A"  196 A'  197 A'  198 A'  199 A'                 
  8.833   9.163  15.929  17.054
200 A'  201 A'  202 A'  203 A'                                                 
 
 Beta MOs, Restricted
 -- Occupied --                  
-68.750 -20.571 -11.193  -6.098  -4.204  -4.204  -4.204  -1.358
  1 A'    2 A'    3 A'    4 A'    5 A'    1 A"    6 A'    7 A'                 
 -0.935  -0.720  -0.684  -0.591  -0.551  -0.551  -0.516  -0.454
  8 A'    9 A'   10 A'   11 A'    2 A"   12 A'    3 A"   13 A'                 
 -0.453  -0.435
  4 A"   14 A'                                                                 
 -- Virtual --                   
  0.026   0.036   0.045   0.050   0.056   0.060   0.073   0.076
 15 A'   16 A'   17 A'    5 A"   18 A'   19 A'    6 A"   20 A'                 
  0.084   0.091   0.093   0.128   0.137   0.138   0.143   0.164
  7 A"   21 A'   22 A'   23 A'   24 A'    8 A"   25 A'   26 A'                 
  0.168   0.170   0.181   0.187   0.189   0.212   0.222   0.224
  9 A"   27 A'   28 A'   10 A"   29 A'   30 A'   31 A'   11 A"                 
  0.229   0.235   0.244   0.266   0.267   0.274   0.279   0.301
 12 A"   32 A'   33 A'   34 A'   13 A"   35 A'   14 A"   15 A"                 
  0.311   0.327   0.330   0.336   0.340   0.345   0.349   0.360
 36 A'   37 A'   38 A'   16 A"   39 A'   17 A"   40 A'   41 A'                 
  0.362   0.368   0.378   0.379   0.383   0.390   0.402   0.417
 42 A'   18 A"   43 A'   19 A"   44 A'   20 A"   45 A'   21 A"                 
  0.420   0.425   0.435   0.441   0.452   0.459   0.468   0.469
 46 A'   47 A'   22 A"   48 A'   49 A'   50 A'   23 A"   51 A'                 
  0.485   0.492   0.493   0.501   0.511   0.524   0.550   0.600
 52 A'   53 A'   24 A"   54 A'   25 A"   55 A'   56 A'   57 A'                 
  0.617   0.621   0.635   0.655   0.656   0.658   0.685   0.686
 58 A'   26 A"   59 A'   27 A"   60 A'   28 A"   61 A'   62 A'                 
  0.687   0.690   0.693   0.704   0.705   0.739   0.743   0.752
 29 A"   63 A'   30 A"   64 A'   31 A"   65 A'   32 A"   66 A'                 
  0.759   0.811   0.817   0.827   0.844   0.862   0.876   0.879
 67 A'   33 A"   68 A'   34 A"   69 A'   70 A'   71 A'   35 A"                 
  0.889   0.900   0.916   0.918   0.942   0.958   0.965   0.968
 72 A'   36 A"   37 A"   73 A'   38 A"   74 A'   75 A'   39 A"                 
  0.969   0.973   0.983   0.989   1.014   1.031   1.053   1.055
 76 A'   40 A"   77 A'   41 A"   78 A'   79 A'   42 A"   80 A'                 
  1.058   1.062   1.062   1.088   1.105   1.116   1.118   1.132
 81 A'   43 A"   82 A'   83 A'   84 A'   44 A"   85 A'   45 A"                 
  1.158   1.159   1.159   1.160   1.172   1.189   1.195   1.205
 86 A'   46 A"   47 A"   87 A'   88 A'   89 A'   48 A"   49 A"                 
  1.211   1.222   1.224   1.262   1.271   1.284   1.298   1.299
 90 A'   91 A'   50 A"   92 A'   51 A"   93 A'   52 A"   94 A'                 
  1.302   1.317   1.327   1.357   1.366   1.391   1.406   1.412
 95 A'   53 A"   96 A'   54 A"   97 A'   98 A'   55 A"   99 A'                 
  1.416   1.417   1.433   1.445   1.454   1.455   1.481   1.483
100 A'   56 A"  101 A'   57 A"   58 A"  102 A'  103 A'   59 A"                 
  1.510   1.539   1.543   1.574   1.595   1.612   1.642   1.648
104 A'  105 A'   60 A"  106 A'   61 A"  107 A'   62 A"  108 A'                 
  1.651   1.666   1.670   1.715   1.722   1.727   1.748   1.787
 63 A"  109 A'  110 A'   64 A"  111 A'   65 A"  112 A'  113 A'                 
  1.846   1.853   1.862   1.874   1.891   1.916   1.917   1.978
114 A'   66 A"  115 A'   67 A"  116 A'   68 A"  117 A'  118 A'                 
  2.005   2.005   2.016   2.054   2.055   2.063   2.107   2.125
119 A'   69 A"  120 A'  121 A'   70 A"  122 A'  123 A'  124 A'                 
  2.147   2.150   2.172   2.178   2.232   2.239   2.292   2.295
 71 A"  125 A'   72 A"  126 A'  127 A'   73 A"   74 A"  128 A'                 
  2.320   2.327   2.356   2.360   2.368   2.475   2.495   2.513
 75 A"   76 A"   77 A"  129 A'  130 A'   78 A"  131 A'  132 A'                 
  2.564   2.728   2.754   2.767   2.776   2.872   2.889   2.931
133 A'  134 A'  135 A'   79 A"  136 A'  137 A'   80 A"  138 A'                 
  3.125   3.127   3.154   3.355   3.425   3.427   3.510   3.574
139 A'   81 A"  140 A'  141 A'   82 A"  142 A'  143 A'   83 A"                 
  3.575   3.626   3.655   3.673   3.674   3.722   3.746   3.757
144 A'   84 A"  145 A'   85 A"  146 A'  147 A'   86 A"  148 A'                 
  3.842   3.842   3.860   3.954   3.957   4.006   4.027   4.062
149 A'   87 A"  150 A'   88 A"  151 A'   89 A"   90 A"   91 A"                 
  4.064   4.098   4.100   4.115   4.132   4.134   4.135   4.164
152 A'  153 A'   92 A"   93 A"   94 A"  154 A'  155 A'   95 A"                 
  4.167   4.181   4.207   4.222   4.225   4.245   4.252   4.279
156 A'  157 A'  158 A'   96 A"  159 A'   97 A"  160 A'  161 A'                 
  4.311   4.320   4.359   4.370   4.377   4.412   4.459   4.509
 98 A"  162 A'   99 A"  163 A'  100 A"  164 A'  101 A"  102 A"                 
  4.515   4.528   4.533   4.548   4.554   4.564   4.608   4.619
165 A'  166 A'  103 A"  167 A'  104 A"  168 A'  169 A'  170 A'                 
  4.621   4.773   4.782   4.783   4.826   4.831   4.868   4.884
105 A"  171 A'  172 A'  106 A"  173 A'  107 A"  174 A'  175 A'                 
  4.885   4.912   5.003   5.022   5.030   5.036   5.083   5.152
108 A"  176 A'  177 A'  109 A"  178 A'  110 A"  179 A'  111 A"                 
  5.159   5.175   5.175   5.239   5.263   5.318   5.358   5.378
180 A'  112 A"  181 A'  182 A'  113 A"  183 A'  184 A'  185 A'                 
  5.529   5.570   5.615   5.615   5.631   5.819   5.939   6.118
114 A"  115 A"  116 A"  186 A'  187 A'  188 A'  189 A'  117 A"                 
  6.118   6.273   6.598   6.707   6.709   6.739   6.959   7.153
190 A'  191 A'  192 A'  118 A"  193 A'  119 A"  194 A'  120 A"                 
  7.312   7.317   7.338   7.366   7.480   7.644   7.910   7.936
121 A"  195 A'  122 A"  123 A"  196 A'  197 A'  198 A'  199 A'                 
  8.833   9.163  15.929  17.054
200 A'  201 A'  202 A'  203 A'                                                 
 --------------------------------------------------------------
 
          Ground-State Mulliken Net Atomic Charges

     Atom                 Charge (a.u.)
  ----------------------------------------
      1 O                    -0.389348
      2 H                     0.204896
      3 H                     0.175930
      4 Si                    1.331023
      5 H                    -0.328929
      6 H                    -0.328929
      7 H                    -0.347949
      8 C                    -1.140113
      9 H                     0.274333
     10 H                     0.274754
     11 H                     0.274333
  ----------------------------------------
  Sum of atomic charges =     0.000000

 -----------------------------------------------------------------
                    Cartesian Multipole Moments
 -----------------------------------------------------------------
    Charge (ESU x 10^10)
                 0.0000
    Dipole Moment (Debye)
         X       1.9173      Y       0.2673      Z      -0.0000
       Tot       1.9359
    Quadrupole Moments (Debye-Ang)
        XX     -17.6758     XY       0.5764     YY     -27.8137
        XZ       0.0000     YZ       0.0000     ZZ     -30.9853
    Octopole Moments (Debye-Ang^2)
       XXX      73.0694    XXY       0.5804    XYY      11.7802
       YYY      -0.8815    XXZ      -0.0000    XYZ       0.0000
       YYZ      -0.0000    XZZ       1.6601    YZZ       2.1534
       ZZZ      -0.0000
    Hexadecapole Moments (Debye-Ang^3)
      XXXX    -448.4878   XXXY      -0.2882   XXYY     -88.4336
      XYYY       4.4212   YYYY     -64.5448   XXXZ       0.0000
      XXYZ      -0.0000   XYYZ       0.0000   YYYZ       0.0000
      XXZZ    -121.2145   XYZZ      -2.2027   YYZZ     -21.9093
      XZZZ       0.0000   YZZZ       0.0000   ZZZZ     -64.7093
 -----------------------------------------------------------------

 ---------------------------------------------------------------------
 *                     Fragment's binding energy                     *
 ---------------------------------------------------------------------
    Fragment           E(TOTAL)         E(CP-CORR)           DE(BSSE)
 ---------------------------------------------------------------------
           1     -76.3289853399     -76.3292537336       0.0002683936
           2    -330.6465808416    -330.6468175848       0.0002367432
     Complex    -406.9777333379
 ---------------------------------------------------------------------
  DE, kJ/mol      -5.6899364567      -4.3636838920
 ---------------------------------------------------------------------

Archival summary:
1\1\gm4.localdomain\SP\MP2\BasisUnspecified\i1118\xuedong\WedJul1011:35:352019WedJul1011:35:352019\0\\#,MP2,BasisUnspecified,\\0,1\Si\H,1,1.47879\H,1,1.47879,2,109.587\H,1,1.48002,2,109.493,3,-120.111,0\C,1,1.88356,2,109.477,3,120.081,0\H,5,1.08891,1,110.973,2,179.949,0\H,5,1.08891,1,110.973,2,59.9017,0\H,5,1.08894,1,110.915,2,-60.0744,0\O,4,2.93448,1,84.2159,2,60.0845,0\H,9,0.959455,4,163.617,1,-0,0\H,9,0.959524,4,92.3289,1,180,0\\HF=-406.383037\MP2=-406.977733\\@

 Total job time:  388.57s(wall), 750.50s(cpu) 
 Wed Jul 10 11:35:35 2019

        *************************************************************
        *                                                           *
        *  Thank you very much for using Q-Chem.  Have a nice day.  *
        *                                                           *
        *************************************************************


