
Running Job 1 of 1 ../qm_inp/SiH3CH3_water.con2.110.qcinp
qchem ../qm_inp/SiH3CH3_water.con2.110.qcinp_12204.0 /scratch/xuedong/qchem12204/ 1
/home/qwang/software/qchem5.1.2/exe/qcprog.exe_s ../qm_inp/SiH3CH3_water.con2.110.qcinp_12204.0 /scratch/xuedong/qchem12204/
Check license passed

                  Welcome to Q-Chem
     A Quantum Leap Into The Future Of Chemistry


 Q-Chem 5.1, Q-Chem, Inc., Pleasanton, CA (2018)

 Yihan Shao,  Zhengting Gan,  E. Epifanovsky,  A. T. B. Gilbert,  M. Wormit,  
 J. Kussmann,  A. W. Lange,  A. Behn,  Jia Deng,  Xintian Feng,  D. Ghosh,  
 M. Goldey,  P. R. Horn,  L. D. Jacobson,  I. Kaliman,  T. Kus,  A. Landau,  
 Jie Liu,  E. I. Proynov,  R. M. Richard,  R. P. Steele,  E. J. Sundstrom,  
 H. L. Woodcock III,  P. M. Zimmerman,  D. Zuev,  B. Albrecht,  E. Alguire,  
 S. A. Baeppler,  D. Barton,  Z. Benda,  Y. A. Bernard,  E. J. Berquist,  
 K. B. Bravaya,  H. Burton,  D. Casanova,  Chun-Min Chang,  Yunqing Chen,  
 A. Chien,  K. D. Closser,  M. P. Coons,  S. Coriani,  S. Dasgupta,  
 A. L. Dempwolff,  M. Diedenhofen,  Hainam Do,  R. G. Edgar,  Po-Tung Fang,  
 S. Faraji,  S. Fatehi,  Qingguo Feng,  K. D. Fenk,  J. Fosso-Tande,  
 J. Gayvert,  Qinghui Ge,  A. Ghysels,  G. Gidofalvi,  J. Gomes,  
 J. Gonthier,  A. Gunina,  D. Hait,  M. W. D. Hanson-Heine,  
 P. H. P. Harbach,  A. W. Hauser,  J. E. Herr,  E. G. Hohenstein,  
 Z. C. Holden,  Kerwin Hui,  B. C. Huynh,  T.-C. Jagau,  Hyunjun Ji,  
 B. Kaduk,  K. Khistyaev,  Jaehoon Kim,  P. Klunzinger,  K. Koh,  
 D. Kosenkov,  L. Koulias,  T. Kowalczyk,  C. M. Krauter,  A. Kunitsa,  
 Ka Un Lao,  A. Laurent,  K. V. Lawler,  Joonho Lee,  D. Lefrancois,  
 S. Lehtola,  D. S. Levine,  Yi-Pei Li,  You-Sheng Lin,  Fenglai Liu,  
 E. Livshits,  A. Luenser,  P. Manohar,  E. Mansoor,  S. F. Manzer,  
 Shan-Ping Mao,  Yuezhi Mao,  N. Mardirossian,  A. V. Marenich,  
 T. Markovich,  L. A. Martinez-Martinez,  S. A. Maurer,  N. J. Mayhall,  
 S. C. McKenzie,  J.-M. Mewes,  A. F. Morrison,  J. W. Mullinax,  K. Nanda,  
 T. S. Nguyen-Beck,  R. Olivares-Amaya,  J. A. Parkhill,  T. M. Perrine,  
 F. Plasser,  P. Pokhilko,  S. Prager,  A. Prociuk,  E. Ramos,  D. R. Rehn,  
 F. Rob,  M. Schneider,  N. Sergueev,  S. M. Sharada,  S. Sharma,  
 D. W. Small,  T. Stauch,  T. Stein,  Yu-Chuan Su,  A. J. W. Thom,  
 A. Tkatchenko,  T. Tsuchimochi,  N. M. Tubman,  L. Vogt,  M. L. Vidal,  
 O. Vydrov,  M. A. Watson,  J. Wenzel,  M. de Wergifosse,  T. A. Wesolowski,  
 A. White,  J. Witte,  A. Yamada,  Jun Yang,  K. Yao,  S. Yeganeh,  
 S. R. Yost,  Zhi-Qiang You,  A. Zech,  Igor Ying Zhang,  Xing Zhang,  
 Yan Zhao,  Ying Zhu,  B. R. Brooks,  G. K. L. Chan,  C. J. Cramer,  
 M. S. Gordon,  W. J. Hehre,  A. Klamt,  M. W. Schmidt,  C. D. Sherrill,  
 D. G. Truhlar,  A. Aspuru-Guzik,  R. Baer,  A. T. Bell,  N. A. Besley,  
 Jeng-Da Chai,  A. E. DePrince, III,  R. A. DiStasio Jr.,  A. Dreuw,  
 B. D. Dunietz,  T. R. Furlani,  Chao-Ping Hsu,  Yousung Jung,  Jing Kong,  
 D. S. Lambrecht,  WanZhen Liang,  C. Ochsenfeld,  V. A. Rassolov,  
 L. V. Slipchenko,  J. E. Subotnik,  T. Van Voorhis,  J. M. Herbert,  
 A. I. Krylov,  P. M. W. Gill,  M. Head-Gordon

 Contributors to earlier versions of Q-Chem not listed above: 
 R. D. Adamson,  B. Austin,  J. Baker,  G. J. O. Beran,  K. Brandhorst,  
 S. T. Brown,  E. F. C. Byrd,  A. K. Chakraborty,  C.-L. Cheng,  
 Siu Hung Chien,  D. M. Chipman,  D. L. Crittenden,  H. Dachsel,  
 R. J. Doerksen,  A. D. Dutoi,  L. Fusti-Molnar,  W. A. Goddard III,  
 A. Golubeva-Zadorozhnaya,  S. R. Gwaltney,  G. Hawkins,  A. Heyden,  
 S. Hirata,  G. Kedziora,  F. J. Keil,  C. Kelley,  Jihan Kim,  R. A. King,  
 R. Z. Khaliullin,  P. P. Korambath,  W. Kurlancheek,  A. M. Lee,  M. S. Lee,  
 S. V. Levchenko,  Ching Yeh Lin,  D. Liotard,  R. C. Lochan,  I. Lotan,  
 P. E. Maslen,  N. Nair,  D. P. O'Neill,  D. Neuhauser,  E. Neuscamman,  
 C. M. Oana,  R. Olson,  B. Peters,  R. Peverati,  P. A. Pieniazek,  
 Y. M. Rhee,  J. Ritchie,  M. A. Rohrdanz,  E. Rosta,  N. J. Russ,  
 H. F. Schaefer III,  N. E. Schultz,  N. Shenvi,  A. C. Simmonett,  A. Sodt,  
 D. Stuck,  K. S. Thanthiriwatte,  V. Vanovschi,  Tao Wang,  A. Warshel,  
 C. F. Williams,  Q. Wu,  X. Xu,  W. Zhang

 Please cite Q-Chem as follows:
 Y. Shao et al., Mol. Phys. 113, 184-215 (2015)
 DOI: 10.1080/00268976.2014.952696

 Q-Chem 5.1.2 for Intel X86 EM64T Linux

 Parts of Q-Chem use Armadillo 8.300.2 (Tropical Shenanigans).
 http://arma.sourceforge.net/

 Q-Chem begins on Wed Jul 10 11:41:47 2019  

Host: 
0

     Scratch files written to /scratch/xuedong/qchem12204//
 Dec218 |scratch|qcdevops|jenkins|workspace|build_RNUM 6581   
Processing $rem in /home/qwang/software/qchem5.1.2/config/preferences.
 MEM_TOTAL  4000 
Core orbitals will be frozen
Input Ideriv = 1
Curr. Ideriv = -1
Max.  Ideriv = 1

Checking the input file for inconsistencies... 	...done.

--------------------------------------------------------------
User input:
--------------------------------------------------------------
$molecule
0 1
--
0 1
O     2.682746157     0.252087281     0.000000000
H     3.094283083     1.118876774     0.000000000
H     3.423599950    -0.357576759     0.000000000
--
0 1
Si    -0.782780803    -0.036843369     0.000000000
H    -0.265558301    -0.714587667    -1.208291248
H    -0.265558301    -0.714587667     1.208291248
H    -0.343042968     1.376338048     0.000000000
C    -2.665171019    -0.103088652     0.000000000
H    -3.072538778     0.390908583     0.880759883
H    -3.017893771    -1.133325146     0.000000000
H    -3.072538778     0.390908583    -0.880759883
$end

$rem
BASIS = aug-cc-pVTZ
JOB_TYPE  =  BSSE
METHOD  =  MP2
SCF_CONVERGENCE  =  7
SCF_MAX_CYCLES  =  200
$end

--------------------------------------------------------------
 ----------------------------------------------------------------
             Standard Nuclear Orientation (Angstroms)
    I     Atom           X                Y                Z
 ----------------------------------------------------------------
    1      O       2.9410093783     0.0044223289    -0.0000000000
    2      H       3.4143135220     0.8390898400    -0.0000000000
    3      H       3.6357065837    -0.6573558644     0.0000000000
    4      Si     -0.5363455686    -0.0324640453     0.0000000000
    5      H      -0.0696274614    -0.7459278905    -1.2082912480
    6      H      -0.0696274614    -0.7459278905     1.2082912480
    7      H       0.0047038728     1.3451122985    -0.0000000000
    8      C      -2.4185842200     0.0379562768    -0.0000000000
    9      H      -2.7890601658     0.5601912171     0.8807598830
   10      H      -2.8450804703    -0.9639925851     0.0000000000
   11      H      -2.7890601658     0.5601912171    -0.8807598830
 ----------------------------------------------------------------
 Molecular Point Group                 Cs    NOp =  2
 Largest Abelian Subgroup              Cs    NOp =  2
 Nuclear Repulsion Energy =   105.7349876933 hartrees
 There are       18 alpha and       18 beta electrons
 Requested basis set is aug-cc-pVTZ
 There are 116 shells and 326 basis functions

 Total QAlloc Memory Limit   4000 MB
 Mega-Array Size       188 MB
 MEM_STATIC part       192 MB

                       Distance Matrix (Angstroms)
             O (  1)   H (  2)   H (  3)   Si(  4)   H (  5)   H (  6)
   H (  2)  0.959524
   H (  3)  0.959455  1.512734
   Si(  4)  3.477551  4.045654  4.218591
   H (  5)  3.329704  4.013738  3.898373  1.478791
   H (  6)  3.329704  4.013738  3.898373  1.478791  2.416582
   H (  7)  3.227900  3.446955  4.146572  1.480017  2.416183  2.416183
   C (  8)  5.359699  5.887658  6.094087  1.883556  2.755366  2.755366
   H (  9)  5.823943  6.271791  6.598165  2.490322  3.669523  3.034557
   H ( 10)  5.866572  6.513917  6.488037  2.489579  3.034907  3.034907
   H ( 11)  5.823943  6.271791  6.598165  2.490322  3.034557  3.669523
             H (  7)   C (  8)   H (  9)   H ( 10)
   C (  8)  2.753358
   H (  9)  3.032648  1.088908
   H ( 10)  3.667865  1.088945  1.761253
   H ( 11)  3.032648  1.088908  1.761520  1.761253
 
 A cutoff of  1.0D-10 yielded   6097 shell pairs
 There are     46921 function pairs (     59914 Cartesian)
 
 -------------------------------------------------------
 OpenMP Integral Computing Module                       
 Release: version 1.0, May 2013, Q-Chem Inc. Pittsburgh 
 -------------------------------------------------------
 Integral Job Info:
 Integral job number is                      11
 Integral operator is                         1
 short-range coefficients                     0
 long-range coefficients              100000000
 Omega coefficients                           0
 if combine SR and LR in K                    0
 Integral screening is                        0
 Integral computing path is                   2
 max size of driver memory is            800000
 size of driver memory is                776718
 size of scratch memory is             29531563
 max col of scratch BK array              10000
 max len of scratch array in speh3          662
 max len of scratch index in speh4           32
 max int batch size is                      520
 min int batch size is                       52
 fixed nKL is                                31
 max L of basis functions is                  3
 order of int derivative is                   0
 number of shells is                        116
 number of basis is                         369
 number of cartesian basis is               369
 number of contracted shell pairs          6097
 number of primitive shell pairs          16667
 maxK2 (contraction) of shell pair          169
 max number of K2 of shell pair               1
 max number of CS2 of shell pair           1086
 max number of PS2 of shell pair           1183
 mem total for path MDJ                  655324
 -------------------------------------------------------
 Smallest overlap matrix eigenvalue = 1.35E-05

 Scale SEOQF with 1.000000e-01/1.000000e-01/1.000000e-01

 Standard Electronic Orientation quadrupole field applied
 Nucleus-field energy     =     0.0000000055 hartrees
 Guess MOs from converged MOs on fragments

-----------------------------------------------------------------
 SCF on fragment 1 out of 2
/home/qwang/software/qchem5.1.2/exe/qcprog.exe /scratch/xuedong/qchem12204/Frg1.input /scratch/xuedong/qchem12204/Frg1/ > /dev/null 
 SCF on fragment 2 out of 2
/home/qwang/software/qchem5.1.2/exe/qcprog.exe /scratch/xuedong/qchem12204/Frg2.input /scratch/xuedong/qchem12204/Frg2/ > /dev/null 
-----------------------------------------------------------------
 Done with SCF on isolated fragments
-----------------------------------------------------------------

 User-specified occupied guess orbitals will be used
 A restricted Hartree-Fock SCF calculation will be
 performed using Pulay DIIS extrapolation
 SCF converges when DIIS error is below 1.0E-07
 using 6 threads for integral computing
 -------------------------------------------------------
 OpenMP Integral computing Module                
 Release: version 1.0, May 2013, Q-Chem Inc. Pittsburgh 
 -------------------------------------------------------
 ---------------------------------------
  Cycle       Energy         DIIS Error
 ---------------------------------------
    1    -406.3831413952      1.51E-04
    2    -406.3837239388      3.19E-05
    3    -406.3837537861      1.10E-05
    4    -406.3837563893      4.59E-06
    5    -406.3837568146      1.11E-06
    6    -406.3837568520      3.52E-07
    7    -406.3837568538      7.82E-08 Convergence criterion met
 ---------------------------------------
 SCF time:  CPU 208.53 s  wall 34.81 s

-----------------------------------------------------------------
 SCF CP correction for fragment 1 out of 2
/home/qwang/software/qchem5.1.2/exe/qcprog.exe /scratch/xuedong/qchem12204/Frg1.input /scratch/xuedong/qchem12204/Frg1BSSE/ > /dev/null 
 SCF CP correction for fragment 2 out of 2
/home/qwang/software/qchem5.1.2/exe/qcprog.exe /scratch/xuedong/qchem12204/Frg2.input /scratch/xuedong/qchem12204/Frg2BSSE/ > /dev/null 
-----------------------------------------------------------------
 Done with counterpoise correction on fragments
-----------------------------------------------------------------

 SCF   energy in the final basis set = -406.38375685
 Total energy in the final basis set = -406.38375685
 
 Components of the MP2 correlation energy:
        aaaa  correlation energy =        -0.0607670764 au
        abab  correlation energy =        -0.4721782159 au
        bbbb  correlation energy =        -0.0607670764 au
        non-Brillouin singles    =        -0.0000000000 au

 Total  MP2   correlation energy =                    -0.59371237 au
        MP2         total energy =                  -406.97746922 au
 
 --------------------------------------------------------------
             Orbital Energies (a.u.) and Symmetries
 --------------------------------------------------------------
 
 Alpha MOs, Restricted
 -- Occupied --                  
-68.752 -20.570 -11.196  -6.101  -4.207  -4.207  -4.207  -1.355
  1 A'    2 A'    3 A'    4 A'    1 A"    5 A'    6 A'    7 A'                 
 -0.937  -0.718  -0.685  -0.589  -0.553  -0.553  -0.513  -0.456
  8 A'    9 A'   10 A'   11 A'    2 A"   12 A'    3 A"   13 A'                 
 -0.456  -0.438
  4 A"   14 A'                                                                 
 -- Virtual --                   
  0.026   0.036   0.045   0.050   0.055   0.060   0.074   0.076
 15 A'   16 A'   17 A'    5 A"   18 A'   19 A'    6 A"   20 A'                 
  0.084   0.090   0.092   0.132   0.136   0.138   0.142   0.162
  7 A"   21 A'   22 A'   23 A'   24 A'    8 A"   25 A'   26 A'                 
  0.168   0.170   0.181   0.186   0.187   0.208   0.220   0.221
  9 A"   27 A'   28 A'   10 A"   29 A'   30 A'   31 A'   11 A"                 
  0.228   0.228   0.244   0.262   0.267   0.272   0.276   0.301
 12 A"   32 A'   33 A'   34 A'   13 A"   35 A'   14 A"   15 A"                 
  0.308   0.322   0.326   0.335   0.339   0.343   0.346   0.358
 36 A'   37 A'   38 A'   16 A"   39 A'   17 A"   40 A'   18 A"                 
  0.359   0.361   0.377   0.377   0.382   0.389   0.394   0.414
 41 A'   42 A'   19 A"   43 A'   44 A'   20 A"   45 A'   21 A"                 
  0.417   0.421   0.429   0.435   0.453   0.457   0.465   0.468
 46 A'   47 A'   22 A"   48 A'   49 A'   50 A'   23 A"   51 A'                 
  0.476   0.490   0.494   0.503   0.509   0.519   0.545   0.590
 52 A'   53 A'   24 A"   54 A'   25 A"   55 A'   56 A'   57 A'                 
  0.613   0.619   0.627   0.635   0.649   0.656   0.678   0.681
 58 A'   26 A"   59 A'   60 A'   27 A"   28 A"   61 A'   29 A"                 
  0.683   0.689   0.692   0.700   0.706   0.729   0.737   0.737
 62 A'   63 A'   30 A"   64 A'   31 A"   65 A'   66 A'   32 A"                 
  0.755   0.793   0.807   0.831   0.839   0.845   0.868   0.871
 67 A'   33 A"   68 A'   34 A"   69 A'   70 A'   35 A"   71 A'                 
  0.879   0.898   0.908   0.910   0.938   0.954   0.961   0.962
 72 A'   36 A"   73 A'   37 A"   38 A"   74 A'   75 A'   76 A'                 
  0.963   0.967   0.975   0.975   0.998   1.022   1.041   1.042
 39 A"   40 A"   77 A'   41 A"   78 A'   79 A'   42 A"   80 A'                 
  1.053   1.056   1.057   1.078   1.087   1.100   1.116   1.116
 81 A'   43 A"   82 A'   83 A'   84 A'   44 A"   45 A"   85 A'                 
  1.149   1.155   1.158   1.158   1.164   1.177   1.181   1.184
 86 A'   46 A"   87 A'   47 A"   88 A'   89 A'   90 A'   48 A"                 
  1.196   1.211   1.217   1.242   1.245   1.249   1.286   1.288
 49 A"   91 A'   50 A"   92 A'   51 A"   93 A'   94 A'   52 A"                 
  1.303   1.321   1.323   1.352   1.353   1.376   1.397   1.399
 95 A'   53 A"   96 A'   54 A"   97 A'   98 A'   55 A"   99 A'                 
  1.401   1.413   1.427   1.444   1.446   1.450   1.475   1.476
 56 A"  100 A'  101 A'   57 A"   58 A"  102 A'  103 A'   59 A"                 
  1.484   1.524   1.529   1.550   1.568   1.578   1.631   1.640
104 A'  105 A'   60 A"  106 A'  107 A'   61 A"  108 A'   62 A"                 
  1.642   1.650   1.667   1.689   1.705   1.714   1.727   1.783
 63 A"  109 A'  110 A'   64 A"  111 A'   65 A"  112 A'  113 A'                 
  1.826   1.847   1.849   1.860   1.871   1.913   1.916   1.951
114 A'  115 A'   66 A"  116 A'   67 A"   68 A"  117 A'  118 A'                 
  1.997   2.003   2.008   2.047   2.047   2.057   2.107   2.110
119 A'   69 A"  120 A'   70 A"  121 A'  122 A'  123 A'  124 A'                 
  2.138   2.150   2.168   2.169   2.198   2.238   2.290   2.291
 71 A"  125 A'  126 A'   72 A"  127 A'   73 A"   74 A"  128 A'                 
  2.315   2.320   2.336   2.361   2.363   2.439   2.454   2.496
 75 A"   76 A"  129 A'   77 A"  130 A'   78 A"  131 A'  132 A'                 
  2.540   2.718   2.740   2.747   2.756   2.841   2.889   2.912
133 A'  134 A'  135 A'   79 A"  136 A'  137 A'   80 A"  138 A'                 
  3.111   3.119   3.140   3.330   3.423   3.424   3.497   3.571
 81 A"  139 A'  140 A'  141 A'   82 A"  142 A'  143 A'   83 A"                 
  3.571   3.624   3.649   3.671   3.671   3.715   3.731   3.742
144 A'   84 A"  145 A'   85 A"  146 A'  147 A'   86 A"  148 A'                 
  3.815   3.840   3.841   3.952   3.953   4.006   4.026   4.049
149 A'   87 A"  150 A'   88 A"  151 A'   89 A"   90 A"   91 A"                 
  4.050   4.070   4.098   4.101   4.127   4.127   4.129   4.161
152 A'  153 A'   92 A"   93 A"   94 A"  154 A'  155 A'  156 A'                 
  4.166   4.179   4.185   4.217   4.220   4.232   4.245   4.267
 95 A"  157 A'  158 A'   96 A"  159 A'   97 A"  160 A'  161 A'                 
  4.292   4.295   4.353   4.357   4.374   4.397   4.428   4.480
 98 A"  162 A'   99 A"  163 A'  100 A"  164 A'  101 A"  165 A'                 
  4.481   4.511   4.511   4.533   4.550   4.551   4.600   4.615
102 A"  166 A'  103 A"  167 A'  168 A'  104 A"  169 A'  105 A"                 
  4.617   4.768   4.776   4.781   4.819   4.821   4.854   4.865
170 A'  171 A'  106 A"  172 A'  107 A"  173 A'  174 A'  175 A'                 
  4.866   4.890   4.934   5.020   5.027   5.028   5.079   5.152
108 A"  176 A'  177 A'  109 A"  110 A"  178 A'  179 A'  111 A"                 
  5.156   5.170   5.171   5.237   5.256   5.288   5.344   5.367
180 A'  112 A"  181 A'  182 A'  113 A"  183 A'  184 A'  185 A'                 
  5.528   5.568   5.613   5.613   5.628   5.765   5.935   6.116
114 A"  115 A"  186 A'  116 A"  187 A'  188 A'  189 A'  190 A'                 
  6.116   6.256   6.584   6.704   6.706   6.720   6.935   7.150
117 A"  191 A'  192 A'  118 A"  193 A'  119 A"  194 A'  120 A"                 
  7.311   7.314   7.315   7.363   7.463   7.605   7.911   7.932
121 A"  122 A"  195 A'  123 A"  196 A'  197 A'  198 A'  199 A'                 
  8.824   9.127  15.873  17.041
200 A'  201 A'  202 A'  203 A'                                                 
 
 Beta MOs, Restricted
 -- Occupied --                  
-68.752 -20.570 -11.196  -6.101  -4.207  -4.207  -4.207  -1.355
  1 A'    2 A'    3 A'    4 A'    1 A"    5 A'    6 A'    7 A'                 
 -0.937  -0.718  -0.685  -0.589  -0.553  -0.553  -0.513  -0.456
  8 A'    9 A'   10 A'   11 A'    2 A"   12 A'    3 A"   13 A'                 
 -0.456  -0.438
  4 A"   14 A'                                                                 
 -- Virtual --                   
  0.026   0.036   0.045   0.050   0.055   0.060   0.074   0.076
 15 A'   16 A'   17 A'    5 A"   18 A'   19 A'    6 A"   20 A'                 
  0.084   0.090   0.092   0.132   0.136   0.138   0.142   0.162
  7 A"   21 A'   22 A'   23 A'   24 A'    8 A"   25 A'   26 A'                 
  0.168   0.170   0.181   0.186   0.187   0.208   0.220   0.221
  9 A"   27 A'   28 A'   10 A"   29 A'   30 A'   31 A'   11 A"                 
  0.228   0.228   0.244   0.262   0.267   0.272   0.276   0.301
 12 A"   32 A'   33 A'   34 A'   13 A"   35 A'   14 A"   15 A"                 
  0.308   0.322   0.326   0.335   0.339   0.343   0.346   0.358
 36 A'   37 A'   38 A'   16 A"   39 A'   17 A"   40 A'   18 A"                 
  0.359   0.361   0.377   0.377   0.382   0.389   0.394   0.414
 41 A'   42 A'   19 A"   43 A'   44 A'   20 A"   45 A'   21 A"                 
  0.417   0.421   0.429   0.435   0.453   0.457   0.465   0.468
 46 A'   47 A'   22 A"   48 A'   49 A'   50 A'   23 A"   51 A'                 
  0.476   0.490   0.494   0.503   0.509   0.519   0.545   0.590
 52 A'   53 A'   24 A"   54 A'   25 A"   55 A'   56 A'   57 A'                 
  0.613   0.619   0.627   0.635   0.649   0.656   0.678   0.681
 58 A'   26 A"   59 A'   60 A'   27 A"   28 A"   61 A'   29 A"                 
  0.683   0.689   0.692   0.700   0.706   0.729   0.737   0.737
 62 A'   63 A'   30 A"   64 A'   31 A"   65 A'   66 A'   32 A"                 
  0.755   0.793   0.807   0.831   0.839   0.845   0.868   0.871
 67 A'   33 A"   68 A'   34 A"   69 A'   70 A'   35 A"   71 A'                 
  0.879   0.898   0.908   0.910   0.938   0.954   0.961   0.962
 72 A'   36 A"   73 A'   37 A"   38 A"   74 A'   75 A'   76 A'                 
  0.963   0.967   0.975   0.975   0.998   1.022   1.041   1.042
 39 A"   40 A"   77 A'   41 A"   78 A'   79 A'   42 A"   80 A'                 
  1.053   1.056   1.057   1.078   1.087   1.100   1.116   1.116
 81 A'   43 A"   82 A'   83 A'   84 A'   44 A"   45 A"   85 A'                 
  1.149   1.155   1.158   1.158   1.164   1.177   1.181   1.184
 86 A'   46 A"   87 A'   47 A"   88 A'   89 A'   90 A'   48 A"                 
  1.196   1.211   1.217   1.242   1.245   1.249   1.286   1.288
 49 A"   91 A'   50 A"   92 A'   51 A"   93 A'   94 A'   52 A"                 
  1.303   1.321   1.323   1.352   1.353   1.376   1.397   1.399
 95 A'   53 A"   96 A'   54 A"   97 A'   98 A'   55 A"   99 A'                 
  1.401   1.413   1.427   1.444   1.446   1.450   1.475   1.476
 56 A"  100 A'  101 A'   57 A"   58 A"  102 A'  103 A'   59 A"                 
  1.484   1.524   1.529   1.550   1.568   1.578   1.631   1.640
104 A'  105 A'   60 A"  106 A'  107 A'   61 A"  108 A'   62 A"                 
  1.642   1.650   1.667   1.689   1.705   1.714   1.727   1.783
 63 A"  109 A'  110 A'   64 A"  111 A'   65 A"  112 A'  113 A'                 
  1.826   1.847   1.849   1.860   1.871   1.913   1.916   1.951
114 A'  115 A'   66 A"  116 A'   67 A"   68 A"  117 A'  118 A'                 
  1.997   2.003   2.008   2.047   2.047   2.057   2.107   2.110
119 A'   69 A"  120 A'   70 A"  121 A'  122 A'  123 A'  124 A'                 
  2.138   2.150   2.168   2.169   2.198   2.238   2.290   2.291
 71 A"  125 A'  126 A'   72 A"  127 A'   73 A"   74 A"  128 A'                 
  2.315   2.320   2.336   2.361   2.363   2.439   2.454   2.496
 75 A"   76 A"  129 A'   77 A"  130 A'   78 A"  131 A'  132 A'                 
  2.540   2.718   2.740   2.747   2.756   2.841   2.889   2.912
133 A'  134 A'  135 A'   79 A"  136 A'  137 A'   80 A"  138 A'                 
  3.111   3.119   3.140   3.330   3.423   3.424   3.497   3.571
 81 A"  139 A'  140 A'  141 A'   82 A"  142 A'  143 A'   83 A"                 
  3.571   3.624   3.649   3.671   3.671   3.715   3.731   3.742
144 A'   84 A"  145 A'   85 A"  146 A'  147 A'   86 A"  148 A'                 
  3.815   3.840   3.841   3.952   3.953   4.006   4.026   4.049
149 A'   87 A"  150 A'   88 A"  151 A'   89 A"   90 A"   91 A"                 
  4.050   4.070   4.098   4.101   4.127   4.127   4.129   4.161
152 A'  153 A'   92 A"   93 A"   94 A"  154 A'  155 A'  156 A'                 
  4.166   4.179   4.185   4.217   4.220   4.232   4.245   4.267
 95 A"  157 A'  158 A'   96 A"  159 A'   97 A"  160 A'  161 A'                 
  4.292   4.295   4.353   4.357   4.374   4.397   4.428   4.480
 98 A"  162 A'   99 A"  163 A'  100 A"  164 A'  101 A"  165 A'                 
  4.481   4.511   4.511   4.533   4.550   4.551   4.600   4.615
102 A"  166 A'  103 A"  167 A'  168 A'  104 A"  169 A'  105 A"                 
  4.617   4.768   4.776   4.781   4.819   4.821   4.854   4.865
170 A'  171 A'  106 A"  172 A'  107 A"  173 A'  174 A'  175 A'                 
  4.866   4.890   4.934   5.020   5.027   5.028   5.079   5.152
108 A"  176 A'  177 A'  109 A"  110 A"  178 A'  179 A'  111 A"                 
  5.156   5.170   5.171   5.237   5.256   5.288   5.344   5.367
180 A'  112 A"  181 A'  182 A'  113 A"  183 A'  184 A'  185 A'                 
  5.528   5.568   5.613   5.613   5.628   5.765   5.935   6.116
114 A"  115 A"  186 A'  116 A"  187 A'  188 A'  189 A'  190 A'                 
  6.116   6.256   6.584   6.704   6.706   6.720   6.935   7.150
117 A"  191 A'  192 A'  118 A"  193 A'  119 A"  194 A'  120 A"                 
  7.311   7.314   7.315   7.363   7.463   7.605   7.911   7.932
121 A"  122 A"  195 A'  123 A"  196 A'  197 A'  198 A'  199 A'                 
  8.824   9.127  15.873  17.041
200 A'  201 A'  202 A'  203 A'                                                 
 --------------------------------------------------------------
 
          Ground-State Mulliken Net Atomic Charges

     Atom                 Charge (a.u.)
  ----------------------------------------
      1 O                    -0.404014
      2 H                     0.212196
      3 H                     0.196887
      4 Si                    1.306368
      5 H                    -0.335043
      6 H                    -0.335043
      7 H                    -0.347164
      8 C                    -1.119437
      9 H                     0.275619
     10 H                     0.274011
     11 H                     0.275619
  ----------------------------------------
  Sum of atomic charges =     0.000000

 -----------------------------------------------------------------
                    Cartesian Multipole Moments
 -----------------------------------------------------------------
    Charge (ESU x 10^10)
                 0.0000
    Dipole Moment (Debye)
         X       1.7806      Y       0.2741      Z      -0.0000
       Tot       1.8015
    Quadrupole Moments (Debye-Ang)
        XX     -16.6839     XY       0.6437     YY     -27.7398
        XZ      -0.0000     YZ       0.0000     ZZ     -30.9428
    Octopole Moments (Debye-Ang^2)
       XXX      82.1758    XXY       0.8540    XYY      12.7711
       YYY      -0.8307    XXZ       0.0000    XYZ       0.0000
       YYZ       0.0000    XZZ       1.8478    YZZ       2.1201
       ZZZ      -0.0000
    Hexadecapole Moments (Debye-Ang^3)
      XXXX    -478.5522   XXXY       0.3101   XXYY     -97.9694
      XYYY       4.7454   YYYY     -64.1722   XXXZ      -0.0000
      XXYZ      -0.0000   XYYZ      -0.0000   YYYZ       0.0000
      XXZZ    -135.8629   XYZZ      -2.3827   YYZZ     -21.8019
      XZZZ      -0.0000   YZZZ       0.0000   ZZZZ     -64.4726
 -----------------------------------------------------------------

 ---------------------------------------------------------------------
 *                     Fragment's binding energy                     *
 ---------------------------------------------------------------------
    Fragment           E(TOTAL)         E(CP-CORR)           DE(BSSE)
 ---------------------------------------------------------------------
           1     -76.3289853399     -76.3291685868       0.0001832469
           2    -330.6465808416    -330.6467452936       0.0001644520
     Complex    -406.9774692225
 ---------------------------------------------------------------------
  DE, kJ/mol      -4.9964932328      -4.0835989740
 ---------------------------------------------------------------------

Archival summary:
1\1\gm4.localdomain\SP\MP2\BasisUnspecified\i1118\xuedong\WedJul1011:47:472019WedJul1011:47:472019\0\\#,MP2,BasisUnspecified,\\0,1\Si\H,1,1.47879\H,1,1.47879,2,109.587\H,1,1.48002,2,109.493,3,-120.111,0\C,1,1.88356,2,109.477,3,120.081,0\H,5,1.08891,1,110.973,2,179.949,0\H,5,1.08891,1,110.973,2,59.9017,0\H,5,1.08894,1,110.915,2,-60.0744,0\O,4,3.2279,1,86.9016,2,60.0845,0\H,9,0.959455,4,160.931,1,0,0\H,9,0.959524,4,95.0147,1,-180,0\\HF=-406.383757\MP2=-406.977469\\@

 Total job time:  359.99s(wall), 665.04s(cpu) 
 Wed Jul 10 11:47:47 2019

        *************************************************************
        *                                                           *
        *  Thank you very much for using Q-Chem.  Have a nice day.  *
        *                                                           *
        *************************************************************


