
Running Job 1 of 1 ../qm_inp/SiH3CH3_SiH3CH3_con2.120.qcinp
qchem ../qm_inp/SiH3CH3_SiH3CH3_con2.120.qcinp_31617.0 /scratch/xuedong/qchem31617/ 1
/home/qwang/software/qchem5.1.2/exe/qcprog.exe_s ../qm_inp/SiH3CH3_SiH3CH3_con2.120.qcinp_31617.0 /scratch/xuedong/qchem31617/
Check license passed

                  Welcome to Q-Chem
     A Quantum Leap Into The Future Of Chemistry


 Q-Chem 5.1, Q-Chem, Inc., Pleasanton, CA (2018)

 Yihan Shao,  Zhengting Gan,  E. Epifanovsky,  A. T. B. Gilbert,  M. Wormit,  
 J. Kussmann,  A. W. Lange,  A. Behn,  Jia Deng,  Xintian Feng,  D. Ghosh,  
 M. Goldey,  P. R. Horn,  L. D. Jacobson,  I. Kaliman,  T. Kus,  A. Landau,  
 Jie Liu,  E. I. Proynov,  R. M. Richard,  R. P. Steele,  E. J. Sundstrom,  
 H. L. Woodcock III,  P. M. Zimmerman,  D. Zuev,  B. Albrecht,  E. Alguire,  
 S. A. Baeppler,  D. Barton,  Z. Benda,  Y. A. Bernard,  E. J. Berquist,  
 K. B. Bravaya,  H. Burton,  D. Casanova,  Chun-Min Chang,  Yunqing Chen,  
 A. Chien,  K. D. Closser,  M. P. Coons,  S. Coriani,  S. Dasgupta,  
 A. L. Dempwolff,  M. Diedenhofen,  Hainam Do,  R. G. Edgar,  Po-Tung Fang,  
 S. Faraji,  S. Fatehi,  Qingguo Feng,  K. D. Fenk,  J. Fosso-Tande,  
 J. Gayvert,  Qinghui Ge,  A. Ghysels,  G. Gidofalvi,  J. Gomes,  
 J. Gonthier,  A. Gunina,  D. Hait,  M. W. D. Hanson-Heine,  
 P. H. P. Harbach,  A. W. Hauser,  J. E. Herr,  E. G. Hohenstein,  
 Z. C. Holden,  Kerwin Hui,  B. C. Huynh,  T.-C. Jagau,  Hyunjun Ji,  
 B. Kaduk,  K. Khistyaev,  Jaehoon Kim,  P. Klunzinger,  K. Koh,  
 D. Kosenkov,  L. Koulias,  T. Kowalczyk,  C. M. Krauter,  A. Kunitsa,  
 Ka Un Lao,  A. Laurent,  K. V. Lawler,  Joonho Lee,  D. Lefrancois,  
 S. Lehtola,  D. S. Levine,  Yi-Pei Li,  You-Sheng Lin,  Fenglai Liu,  
 E. Livshits,  A. Luenser,  P. Manohar,  E. Mansoor,  S. F. Manzer,  
 Shan-Ping Mao,  Yuezhi Mao,  N. Mardirossian,  A. V. Marenich,  
 T. Markovich,  L. A. Martinez-Martinez,  S. A. Maurer,  N. J. Mayhall,  
 S. C. McKenzie,  J.-M. Mewes,  A. F. Morrison,  J. W. Mullinax,  K. Nanda,  
 T. S. Nguyen-Beck,  R. Olivares-Amaya,  J. A. Parkhill,  T. M. Perrine,  
 F. Plasser,  P. Pokhilko,  S. Prager,  A. Prociuk,  E. Ramos,  D. R. Rehn,  
 F. Rob,  M. Schneider,  N. Sergueev,  S. M. Sharada,  S. Sharma,  
 D. W. Small,  T. Stauch,  T. Stein,  Yu-Chuan Su,  A. J. W. Thom,  
 A. Tkatchenko,  T. Tsuchimochi,  N. M. Tubman,  L. Vogt,  M. L. Vidal,  
 O. Vydrov,  M. A. Watson,  J. Wenzel,  M. de Wergifosse,  T. A. Wesolowski,  
 A. White,  J. Witte,  A. Yamada,  Jun Yang,  K. Yao,  S. Yeganeh,  
 S. R. Yost,  Zhi-Qiang You,  A. Zech,  Igor Ying Zhang,  Xing Zhang,  
 Yan Zhao,  Ying Zhu,  B. R. Brooks,  G. K. L. Chan,  C. J. Cramer,  
 M. S. Gordon,  W. J. Hehre,  A. Klamt,  M. W. Schmidt,  C. D. Sherrill,  
 D. G. Truhlar,  A. Aspuru-Guzik,  R. Baer,  A. T. Bell,  N. A. Besley,  
 Jeng-Da Chai,  A. E. DePrince, III,  R. A. DiStasio Jr.,  A. Dreuw,  
 B. D. Dunietz,  T. R. Furlani,  Chao-Ping Hsu,  Yousung Jung,  Jing Kong,  
 D. S. Lambrecht,  WanZhen Liang,  C. Ochsenfeld,  V. A. Rassolov,  
 L. V. Slipchenko,  J. E. Subotnik,  T. Van Voorhis,  J. M. Herbert,  
 A. I. Krylov,  P. M. W. Gill,  M. Head-Gordon

 Contributors to earlier versions of Q-Chem not listed above: 
 R. D. Adamson,  B. Austin,  J. Baker,  G. J. O. Beran,  K. Brandhorst,  
 S. T. Brown,  E. F. C. Byrd,  A. K. Chakraborty,  C.-L. Cheng,  
 Siu Hung Chien,  D. M. Chipman,  D. L. Crittenden,  H. Dachsel,  
 R. J. Doerksen,  A. D. Dutoi,  L. Fusti-Molnar,  W. A. Goddard III,  
 A. Golubeva-Zadorozhnaya,  S. R. Gwaltney,  G. Hawkins,  A. Heyden,  
 S. Hirata,  G. Kedziora,  F. J. Keil,  C. Kelley,  Jihan Kim,  R. A. King,  
 R. Z. Khaliullin,  P. P. Korambath,  W. Kurlancheek,  A. M. Lee,  M. S. Lee,  
 S. V. Levchenko,  Ching Yeh Lin,  D. Liotard,  R. C. Lochan,  I. Lotan,  
 P. E. Maslen,  N. Nair,  D. P. O'Neill,  D. Neuhauser,  E. Neuscamman,  
 C. M. Oana,  R. Olson,  B. Peters,  R. Peverati,  P. A. Pieniazek,  
 Y. M. Rhee,  J. Ritchie,  M. A. Rohrdanz,  E. Rosta,  N. J. Russ,  
 H. F. Schaefer III,  N. E. Schultz,  N. Shenvi,  A. C. Simmonett,  A. Sodt,  
 D. Stuck,  K. S. Thanthiriwatte,  V. Vanovschi,  Tao Wang,  A. Warshel,  
 C. F. Williams,  Q. Wu,  X. Xu,  W. Zhang

 Please cite Q-Chem as follows:
 Y. Shao et al., Mol. Phys. 113, 184-215 (2015)
 DOI: 10.1080/00268976.2014.952696

 Q-Chem 5.1.2 for Intel X86 EM64T Linux

 Parts of Q-Chem use Armadillo 8.300.2 (Tropical Shenanigans).
 http://arma.sourceforge.net/

 Q-Chem begins on Wed Jul  3 11:35:35 2019  

Host: 
0

     Scratch files written to /scratch/xuedong/qchem31617//
 Dec218 |scratch|qcdevops|jenkins|workspace|build_RNUM 6581   
Processing $rem in /home/qwang/software/qchem5.1.2/config/preferences.
 MEM_TOTAL  4000 
Core orbitals will be frozen
Input Ideriv = 1
Curr. Ideriv = -1
Max.  Ideriv = 1

Checking the input file for inconsistencies... 	...done.

--------------------------------------------------------------
User input:
--------------------------------------------------------------
$molecule
0 1
--
0 1
Si     2.014998435     0.321073490    -0.133289128
H     1.503542539     1.072357510     1.035552051
H     1.215154919    -0.917779499    -0.277040965
H     1.816801357     1.147049434    -1.346132733
C     3.832693717    -0.093902041     0.092465048
H     4.212738567    -0.647371106    -0.764407842
H     3.983063110    -0.702802282     0.982191073
H     4.425687573     0.812791426     0.199197617
--
0 1
Si    -2.756268782    -0.354931721     0.002104786
H    -2.526499481    -1.524567020    -0.876218474
H    -2.233853352    -0.670456208     1.351104751
H    -1.989936779     0.792475460    -0.537910574
C    -4.586416155     0.059165023     0.083172700
H    -4.760538136     0.920840304     0.725175114
H    -5.155165556    -0.779422870     0.481202085
H    -4.974762276     0.291150656    -0.906982471
$end

$rem
BASIS = aug-cc-pVTZ
JOB_TYPE  =  BSSE
METHOD  =  MP2
SCF_CONVERGENCE  =  7
SCF_MAX_CYCLES  =  200
$end

--------------------------------------------------------------
 ----------------------------------------------------------------
             Standard Nuclear Orientation (Angstroms)
    I     Atom           X                Y                Z
 ----------------------------------------------------------------
    1      Si     -2.4008924959     0.2521932734     0.0465408762
    2      H      -1.9096568804     0.7785848875    -1.2472148785
    3      H      -1.5514144406    -0.8981758971     0.4341086433
    4      H      -2.2495329291     1.3095848227     1.0719780245
    5      C      -4.1972978976    -0.2769661061    -0.0952468571
    6      H      -4.5624014701    -0.6657304560     0.8537288565
    7      H      -4.3131788859    -1.0557818928    -0.8469119583
    8      H      -4.8265961074     0.5643395432    -0.3804049977
    9      Si      2.3955854283    -0.2315776489     0.0549450971
   10      H       2.2061727382    -1.2130400067     1.1472577292
   11      H       1.9003195420    -0.8299694549    -1.2055760004
   12      H       1.5765841958     0.9659923562     0.3557567177
   13      C       4.2075320505     0.2365385926    -0.1038130522
   14      H       4.3518681110     0.9607962137    -0.9035554192
   15      H       4.8148005030    -0.6390026461    -0.3269396814
   16      H       4.5759296515     0.6763488672     0.8213287944
 ----------------------------------------------------------------
 Molecular Point Group                 C1    NOp =  1
 Largest Abelian Subgroup              C1    NOp =  1
 Nuclear Repulsion Energy =   187.3890032452 hartrees
 There are       26 alpha and       26 beta electrons
 Requested basis set is aug-cc-pVTZ
 There are 168 shells and 468 basis functions

 Total QAlloc Memory Limit   4000 MB
 Mega-Array Size       188 MB
 MEM_STATIC part       192 MB
 A cutoff of  1.0D-10 yielded  11267 shell pairs
 There are     83157 function pairs (    105225 Cartesian)
 
 -------------------------------------------------------
 OpenMP Integral Computing Module                       
 Release: version 1.0, May 2013, Q-Chem Inc. Pittsburgh 
 -------------------------------------------------------
 Integral Job Info:
 Integral job number is                      11
 Integral operator is                         1
 short-range coefficients                     0
 long-range coefficients              100000000
 Omega coefficients                           0
 if combine SR and LR in K                    0
 Integral screening is                        0
 Integral computing path is                   2
 max size of driver memory is            800000
 size of driver memory is                776718
 size of scratch memory is             29531563
 max col of scratch BK array              10000
 max len of scratch array in speh3          662
 max len of scratch index in speh4           32
 max int batch size is                      520
 min int batch size is                       52
 fixed nKL is                                31
 max L of basis functions is                  3
 order of int derivative is                   0
 number of shells is                        168
 number of basis is                         528
 number of cartesian basis is               528
 number of contracted shell pairs         11267
 number of primitive shell pairs          31321
 maxK2 (contraction) of shell pair          169
 max number of K2 of shell pair               1
 max number of CS2 of shell pair           2128
 max number of PS2 of shell pair           2977
 mem total for path MDJ                  772220
 -------------------------------------------------------
 Smallest overlap matrix eigenvalue = 1.17E-05

 Scale SEOQF with 1.000000e-01/1.000000e-01/1.000000e-01

 Standard Electronic Orientation quadrupole field applied
 Nucleus-field energy     =     0.0000000185 hartrees
 Guess MOs from converged MOs on fragments

-----------------------------------------------------------------
 SCF on fragment 1 out of 2
/home/qwang/software/qchem5.1.2/exe/qcprog.exe /scratch/xuedong/qchem31617/Frg1.input /scratch/xuedong/qchem31617/Frg1/ > /dev/null 
 SCF on fragment 2 out of 2
/home/qwang/software/qchem5.1.2/exe/qcprog.exe /scratch/xuedong/qchem31617/Frg2.input /scratch/xuedong/qchem31617/Frg2/ > /dev/null 
-----------------------------------------------------------------
 Done with SCF on isolated fragments
-----------------------------------------------------------------

 User-specified occupied guess orbitals will be used
 A restricted Hartree-Fock SCF calculation will be
 performed using Pulay DIIS extrapolation
 SCF converges when DIIS error is below 1.0E-07
 using 6 threads for integral computing
 -------------------------------------------------------
 OpenMP Integral computing Module                
 Release: version 1.0, May 2013, Q-Chem Inc. Pittsburgh 
 -------------------------------------------------------
 ---------------------------------------
  Cycle       Energy         DIIS Error
 ---------------------------------------
    1    -660.6461484463      4.48E-05
    2    -660.6462312683      4.76E-06
    3    -660.6462329137      8.14E-07
    4    -660.6462329735      2.80E-07
    5    -660.6462329789      1.14E-07
    6    -660.6462329796      7.67E-08 Convergence criterion met
 ---------------------------------------
 SCF time:  CPU 637.35 s  wall 106.23 s

-----------------------------------------------------------------
 SCF CP correction for fragment 1 out of 2
/home/qwang/software/qchem5.1.2/exe/qcprog.exe /scratch/xuedong/qchem31617/Frg1.input /scratch/xuedong/qchem31617/Frg1BSSE/ > /dev/null 
 SCF CP correction for fragment 2 out of 2
/home/qwang/software/qchem5.1.2/exe/qcprog.exe /scratch/xuedong/qchem31617/Frg2.input /scratch/xuedong/qchem31617/Frg2BSSE/ > /dev/null 
-----------------------------------------------------------------
 Done with counterpoise correction on fragments
-----------------------------------------------------------------

 SCF   energy in the final basis set = -660.64623298
 Total energy in the final basis set = -660.64623298
 
 Components of the MP2 correlation energy:
        aaaa  correlation energy =        -0.0559407984 au
        abab  correlation energy =        -0.5364992359 au
        bbbb  correlation energy =        -0.0559407984 au
        non-Brillouin singles    =        -0.0000000000 au

 Total  MP2   correlation energy =                    -0.64838083 au
        MP2         total energy =                  -661.29461381 au
 
 --------------------------------------------------------------
 
                    Orbital Energies (a.u.)
 --------------------------------------------------------------
 
 Alpha MOs
 -- Occupied --
-68.764 -68.764 -11.207 -11.207  -6.113  -6.113  -4.219  -4.219
 -4.219  -4.219  -4.219  -4.219  -0.948  -0.948  -0.699  -0.695
 -0.564  -0.564  -0.564  -0.564  -0.468  -0.467  -0.467  -0.466
 -0.455  -0.451
 -- Virtual --
  0.029   0.032   0.043   0.043   0.047   0.050   0.050   0.066
  0.069   0.070   0.072   0.075   0.089   0.090   0.097   0.103
  0.104   0.122   0.130   0.132   0.138   0.142   0.143   0.151
  0.152   0.157   0.161   0.162   0.164   0.169   0.172   0.178
  0.192   0.205   0.212   0.213   0.213   0.223   0.226   0.238
  0.246   0.257   0.258   0.266   0.266   0.279   0.288   0.290
  0.294   0.300   0.316   0.324   0.329   0.331   0.335   0.338
  0.339   0.342   0.349   0.350   0.354   0.357   0.360   0.362
  0.372   0.373   0.378   0.382   0.386   0.388   0.392   0.392
  0.407   0.410   0.420   0.420   0.429   0.434   0.440   0.445
  0.451   0.454   0.455   0.460   0.469   0.472   0.477   0.478
  0.486   0.494   0.496   0.507   0.514   0.519   0.526   0.538
  0.551   0.560   0.582   0.584   0.608   0.612   0.612   0.618
  0.626   0.643   0.645   0.651   0.663   0.666   0.670   0.675
  0.684   0.684   0.686   0.689   0.694   0.695   0.700   0.706
  0.715   0.717   0.726   0.736   0.743   0.749   0.778   0.795
  0.832   0.834   0.838   0.846   0.847   0.861   0.872   0.874
  0.880   0.887   0.898   0.904   0.908   0.934   0.953   0.954
  0.954   0.955   0.961   0.964   0.967   0.976   0.992   1.000
  1.011   1.012   1.028   1.035   1.036   1.050   1.052   1.062
  1.067   1.071   1.078   1.085   1.093   1.105   1.108   1.113
  1.129   1.140   1.141   1.148   1.149   1.154   1.155   1.159
  1.160   1.170   1.179   1.188   1.194   1.203   1.206   1.212
  1.217   1.226   1.228   1.263   1.266   1.269   1.274   1.280
  1.283   1.291   1.296   1.307   1.311   1.314   1.329   1.335
  1.343   1.359   1.360   1.379   1.393   1.403   1.405   1.414
  1.415   1.418   1.427   1.432   1.435   1.439   1.456   1.457
  1.458   1.465   1.466   1.475   1.476   1.491   1.495   1.511
  1.525   1.536   1.545   1.554   1.558   1.579   1.620   1.623
  1.631   1.632   1.656   1.658   1.661   1.669   1.681   1.694
  1.696   1.704   1.706   1.724   1.775   1.779   1.797   1.834
  1.838   1.840   1.845   1.852   1.859   1.875   1.899   1.906
  1.912   1.960   2.002   2.005   2.005   2.016   2.023   2.025
  2.032   2.032   2.035   2.055   2.071   2.103   2.107   2.119
  2.130   2.132   2.159   2.165   2.171   2.174   2.196   2.204
  2.227   2.229   2.282   2.287   2.292   2.298   2.339   2.342
  2.352   2.363   2.367   2.372   2.748   2.750   3.091   3.095
  3.110   3.115   3.126   3.163   3.307   3.309   3.414   3.417
  3.417   3.418   3.480   3.490   3.563   3.565   3.566   3.575
  3.615   3.615   3.639   3.640   3.659   3.661   3.661   3.662
  3.716   3.730   3.733   3.770   3.828   3.830   3.833   3.835
  3.944   3.946   3.947   3.947   4.003   4.009   4.016   4.032
  4.040   4.049   4.055   4.062   4.088   4.088   4.113   4.114
  4.117   4.120   4.120   4.124   4.136   4.140   4.149   4.172
  4.174   4.184   4.198   4.208   4.214   4.222   4.223   4.226
  4.227   4.228   4.240   4.283   4.338   4.340   4.343   4.347
  4.357   4.364   4.376   4.395   4.499   4.507   4.507   4.518
  4.534   4.538   4.543   4.544   4.585   4.588   4.598   4.601
  4.603   4.615   4.757   4.767   4.768   4.777   4.800   4.804
  4.805   4.809   4.810   4.824   4.845   4.846   4.850   4.864
  4.907   4.952   5.006   5.007   5.020   5.025   5.027   5.029
  5.075   5.095   5.158   5.160   5.161   5.168   5.240   5.241
  5.248   5.253   5.333   5.342   5.565   5.565   5.602   5.603
  5.604   5.604   5.622   5.622   5.936   5.939   6.104   6.106
  6.106   6.109   6.694   6.697   6.697   6.698   8.967   9.133
 17.011  17.069
 --------------------------------------------------------------
 
          Ground-State Mulliken Net Atomic Charges

     Atom                 Charge (a.u.)
  ----------------------------------------
      1 Si                    1.280237
      2 H                    -0.351678
      3 H                    -0.343577
      4 H                    -0.360381
      5 C                    -1.063992
      6 H                     0.280888
      7 H                     0.285316
      8 H                     0.273820
      9 Si                    1.271012
     10 H                    -0.357068
     11 H                    -0.348706
     12 H                    -0.342731
     13 C                    -1.062533
     14 H                     0.284582
     15 H                     0.274245
     16 H                     0.280566
  ----------------------------------------
  Sum of atomic charges =     0.000000

 -----------------------------------------------------------------
                    Cartesian Multipole Moments
 -----------------------------------------------------------------
    Charge (ESU x 10^10)
                 0.0000
    Dipole Moment (Debye)
         X       0.0021      Y      -0.0239      Z      -0.1151
       Tot       0.1176
    Quadrupole Moments (Debye-Ang)
        XX     -39.3936     XY       0.7775     YY     -46.6594
        XZ      -0.0104     YZ      -0.0007     ZZ     -46.5586
    Octopole Moments (Debye-Ang^2)
       XXX      -0.0861    XXY      -0.0400    XYY       0.2034
       YYY      -0.5041    XXZ      -0.2693    XYZ       1.2128
       YYZ      -2.5081    XZZ      -0.0175    YZZ       0.1246
       ZZZ       0.7805
    Hexadecapole Moments (Debye-Ang^3)
      XXXX   -2703.6385   XXXY     -17.9802   XXYY    -464.7131
      XYYY       4.8170   YYYY    -133.4444   XXXZ       0.6887
      XXYZ      -0.5170   XYYZ       0.7503   YYYZ      -0.0265
      XXZZ    -463.3574   XYZZ      13.9059   YYZZ     -41.9051
      XZZZ      -1.1757   YZZZ       0.0263   ZZZZ    -115.7934
 -----------------------------------------------------------------

 ---------------------------------------------------------------------
 *                     Fragment's binding energy                     *
 ---------------------------------------------------------------------
    Fragment           E(TOTAL)         E(CP-CORR)           DE(BSSE)
 ---------------------------------------------------------------------
           1    -330.6467391755    -330.6468815512       0.0001423757
           2    -330.6467390294    -330.6468820647       0.0001430354
     Complex    -661.2946138122
 ---------------------------------------------------------------------
  DE, kJ/mol      -2.9815724050      -2.2322166678
 ---------------------------------------------------------------------

Archival summary:
1\1\mm2.localdomain\SP\MP2\BasisUnspecified\i2212\xuedong\WedJul312:01:482019WedJul312:01:482019\0\\#,MP2,BasisUnspecified,\\0,1\Si\H,1,1.48063\H,1,1.48064,2,108.504\H,1,1.4817,2,108.336,3,-117.462,0\C,1,1.87816,2,110.577,3,121.399,0\H,5,1.08856,1,110.845,2,60.0131,0\H,5,1.08859,1,110.815,2,-179.959,0\H,5,1.08864,1,110.795,2,-59.9914,0\H,4,3.6422,1,93.7497,2,58.3952,0\Si,9,1.48161,4,95.1279,1,-152.996,0\H,10,1.48061,9,108.324,4,57.0832,0\H,10,1.48071,9,108.342,4,-60.4315,0\C,10,1.87808,9,110.451,4,178.331,0\H,13,1.08857,10,110.826,9,-59.9862,0\H,13,1.08857,10,110.831,9,60.0438,0\H,13,1.08864,10,110.791,9,-179.971,0\\HF=-660.646233\MP2=-661.294614\\@

 Total job time:  1572.94s(wall), 3216.12s(cpu) 
 Wed Jul  3 12:01:48 2019

        *************************************************************
        *                                                           *
        *  Thank you very much for using Q-Chem.  Have a nice day.  *
        *                                                           *
        *************************************************************


