
Running Job 1 of 1 ../qm_inp/SiH3CH3_water.con1.150.qcinp
qchem ../qm_inp/SiH3CH3_water.con1.150.qcinp_12770.0 /scratch/xuedong/qchem12770/ 1
/home/qwang/software/qchem5.1.2/exe/qcprog.exe_s ../qm_inp/SiH3CH3_water.con1.150.qcinp_12770.0 /scratch/xuedong/qchem12770/
Check license passed

                  Welcome to Q-Chem
     A Quantum Leap Into The Future Of Chemistry


 Q-Chem 5.1, Q-Chem, Inc., Pleasanton, CA (2018)

 Yihan Shao,  Zhengting Gan,  E. Epifanovsky,  A. T. B. Gilbert,  M. Wormit,  
 J. Kussmann,  A. W. Lange,  A. Behn,  Jia Deng,  Xintian Feng,  D. Ghosh,  
 M. Goldey,  P. R. Horn,  L. D. Jacobson,  I. Kaliman,  T. Kus,  A. Landau,  
 Jie Liu,  E. I. Proynov,  R. M. Richard,  R. P. Steele,  E. J. Sundstrom,  
 H. L. Woodcock III,  P. M. Zimmerman,  D. Zuev,  B. Albrecht,  E. Alguire,  
 S. A. Baeppler,  D. Barton,  Z. Benda,  Y. A. Bernard,  E. J. Berquist,  
 K. B. Bravaya,  H. Burton,  D. Casanova,  Chun-Min Chang,  Yunqing Chen,  
 A. Chien,  K. D. Closser,  M. P. Coons,  S. Coriani,  S. Dasgupta,  
 A. L. Dempwolff,  M. Diedenhofen,  Hainam Do,  R. G. Edgar,  Po-Tung Fang,  
 S. Faraji,  S. Fatehi,  Qingguo Feng,  K. D. Fenk,  J. Fosso-Tande,  
 J. Gayvert,  Qinghui Ge,  A. Ghysels,  G. Gidofalvi,  J. Gomes,  
 J. Gonthier,  A. Gunina,  D. Hait,  M. W. D. Hanson-Heine,  
 P. H. P. Harbach,  A. W. Hauser,  J. E. Herr,  E. G. Hohenstein,  
 Z. C. Holden,  Kerwin Hui,  B. C. Huynh,  T.-C. Jagau,  Hyunjun Ji,  
 B. Kaduk,  K. Khistyaev,  Jaehoon Kim,  P. Klunzinger,  K. Koh,  
 D. Kosenkov,  L. Koulias,  T. Kowalczyk,  C. M. Krauter,  A. Kunitsa,  
 Ka Un Lao,  A. Laurent,  K. V. Lawler,  Joonho Lee,  D. Lefrancois,  
 S. Lehtola,  D. S. Levine,  Yi-Pei Li,  You-Sheng Lin,  Fenglai Liu,  
 E. Livshits,  A. Luenser,  P. Manohar,  E. Mansoor,  S. F. Manzer,  
 Shan-Ping Mao,  Yuezhi Mao,  N. Mardirossian,  A. V. Marenich,  
 T. Markovich,  L. A. Martinez-Martinez,  S. A. Maurer,  N. J. Mayhall,  
 S. C. McKenzie,  J.-M. Mewes,  A. F. Morrison,  J. W. Mullinax,  K. Nanda,  
 T. S. Nguyen-Beck,  R. Olivares-Amaya,  J. A. Parkhill,  T. M. Perrine,  
 F. Plasser,  P. Pokhilko,  S. Prager,  A. Prociuk,  E. Ramos,  D. R. Rehn,  
 F. Rob,  M. Schneider,  N. Sergueev,  S. M. Sharada,  S. Sharma,  
 D. W. Small,  T. Stauch,  T. Stein,  Yu-Chuan Su,  A. J. W. Thom,  
 A. Tkatchenko,  T. Tsuchimochi,  N. M. Tubman,  L. Vogt,  M. L. Vidal,  
 O. Vydrov,  M. A. Watson,  J. Wenzel,  M. de Wergifosse,  T. A. Wesolowski,  
 A. White,  J. Witte,  A. Yamada,  Jun Yang,  K. Yao,  S. Yeganeh,  
 S. R. Yost,  Zhi-Qiang You,  A. Zech,  Igor Ying Zhang,  Xing Zhang,  
 Yan Zhao,  Ying Zhu,  B. R. Brooks,  G. K. L. Chan,  C. J. Cramer,  
 M. S. Gordon,  W. J. Hehre,  A. Klamt,  M. W. Schmidt,  C. D. Sherrill,  
 D. G. Truhlar,  A. Aspuru-Guzik,  R. Baer,  A. T. Bell,  N. A. Besley,  
 Jeng-Da Chai,  A. E. DePrince, III,  R. A. DiStasio Jr.,  A. Dreuw,  
 B. D. Dunietz,  T. R. Furlani,  Chao-Ping Hsu,  Yousung Jung,  Jing Kong,  
 D. S. Lambrecht,  WanZhen Liang,  C. Ochsenfeld,  V. A. Rassolov,  
 L. V. Slipchenko,  J. E. Subotnik,  T. Van Voorhis,  J. M. Herbert,  
 A. I. Krylov,  P. M. W. Gill,  M. Head-Gordon

 Contributors to earlier versions of Q-Chem not listed above: 
 R. D. Adamson,  B. Austin,  J. Baker,  G. J. O. Beran,  K. Brandhorst,  
 S. T. Brown,  E. F. C. Byrd,  A. K. Chakraborty,  C.-L. Cheng,  
 Siu Hung Chien,  D. M. Chipman,  D. L. Crittenden,  H. Dachsel,  
 R. J. Doerksen,  A. D. Dutoi,  L. Fusti-Molnar,  W. A. Goddard III,  
 A. Golubeva-Zadorozhnaya,  S. R. Gwaltney,  G. Hawkins,  A. Heyden,  
 S. Hirata,  G. Kedziora,  F. J. Keil,  C. Kelley,  Jihan Kim,  R. A. King,  
 R. Z. Khaliullin,  P. P. Korambath,  W. Kurlancheek,  A. M. Lee,  M. S. Lee,  
 S. V. Levchenko,  Ching Yeh Lin,  D. Liotard,  R. C. Lochan,  I. Lotan,  
 P. E. Maslen,  N. Nair,  D. P. O'Neill,  D. Neuhauser,  E. Neuscamman,  
 C. M. Oana,  R. Olson,  B. Peters,  R. Peverati,  P. A. Pieniazek,  
 Y. M. Rhee,  J. Ritchie,  M. A. Rohrdanz,  E. Rosta,  N. J. Russ,  
 H. F. Schaefer III,  N. E. Schultz,  N. Shenvi,  A. C. Simmonett,  A. Sodt,  
 D. Stuck,  K. S. Thanthiriwatte,  V. Vanovschi,  Tao Wang,  A. Warshel,  
 C. F. Williams,  Q. Wu,  X. Xu,  W. Zhang

 Please cite Q-Chem as follows:
 Y. Shao et al., Mol. Phys. 113, 184-215 (2015)
 DOI: 10.1080/00268976.2014.952696

 Q-Chem 5.1.2 for Intel X86 EM64T Linux

 Parts of Q-Chem use Armadillo 8.300.2 (Tropical Shenanigans).
 http://arma.sourceforge.net/

 Q-Chem begins on Wed Jul 10 12:03:17 2019  

Host: 
0

     Scratch files written to /scratch/xuedong/qchem12770//
 Dec218 |scratch|qcdevops|jenkins|workspace|build_RNUM 6581   
Processing $rem in /home/qwang/software/qchem5.1.2/config/preferences.
 MEM_TOTAL  4000 
Core orbitals will be frozen
Input Ideriv = 1
Curr. Ideriv = -1
Max.  Ideriv = 1

Checking the input file for inconsistencies... 	...done.

--------------------------------------------------------------
User input:
--------------------------------------------------------------
$molecule
0 1
--
0 1
O     3.417192278    -0.078854989     0.000000000
H     3.621539415     0.858418795     0.000000000
H     2.457629173    -0.098605673     0.000000000
--
0 1
Si    -3.099408644    -0.023497673     0.000000000
H    -3.578187930    -0.740008041     1.203009641
H    -3.578187930    -0.740008041    -1.203009641
H    -3.674235900     1.340537317     0.000000000
C    -1.219836675     0.063074410     0.000000000
H    -0.862477812     0.587388527    -0.885246536
H    -0.799878520    -0.942322260     0.000000000
H    -0.862477812     0.587388527     0.885246536
$end

$rem
BASIS = aug-cc-pVTZ
JOB_TYPE  =  BSSE
METHOD  =  MP2
SCF_CONVERGENCE  =  7
SCF_MAX_CYCLES  =  200
$end

--------------------------------------------------------------
 ----------------------------------------------------------------
             Standard Nuclear Orientation (Angstroms)
    I     Atom           X                Y                Z
 ----------------------------------------------------------------
    1      O       4.2679649578    -0.1122544354    -0.0000000000
    2      H       4.4779868716     0.8237640977     0.0000000000
    3      H       3.3082998032    -0.1261911885    -0.0000000000
    4      Si     -2.2481809780    -0.0174169329    -0.0000000000
    5      H      -2.7312924963    -0.7310134387     1.2030096410
    6      H      -2.7312924963    -0.7310134387    -1.2030096410
    7      H      -2.8147335995     1.3500756467     0.0000000000
    8      C      -0.3681190033     0.0577660660     0.0000000000
    9      H      -0.0075901117     0.5799054809    -0.8852465360
   10      H       0.0457401904    -0.9501564924    -0.0000000000
   11      H      -0.0075901117     0.5799054809     0.8852465360
 ----------------------------------------------------------------
 Molecular Point Group                 Cs    NOp =  2
 Largest Abelian Subgroup              Cs    NOp =  2
 Nuclear Repulsion Energy =    96.4477141749 hartrees
 There are       18 alpha and       18 beta electrons
 Requested basis set is aug-cc-pVTZ
 There are 116 shells and 326 basis functions

 Total QAlloc Memory Limit   4000 MB
 Mega-Array Size       188 MB
 MEM_STATIC part       192 MB

                       Distance Matrix (Angstroms)
             O (  1)   H (  2)   H (  3)   Si(  4)   H (  5)   H (  6)
   H (  2)  0.959291
   H (  3)  0.959766  1.506845
   Si(  4)  6.516836  6.778563  5.557545
   H (  5)  7.128794  7.472501  6.187869  1.479814
   H (  6)  7.128794  7.472501  6.187869  1.479814  2.406019
   H (  7)  7.232083  7.311688  6.298484  1.480209  2.405229  2.405229
   C (  8)  4.639201  4.906271  3.681018  1.881565  2.766585  2.766585
   H (  9)  4.420760  4.578595  3.503906  2.482076  3.673946  3.039414
   H ( 10)  4.304563  4.774055  3.364998  2.476303  3.034331  3.034331
   H ( 11)  4.420760  4.578595  3.503906  2.482076  3.039414  3.673946
             H (  7)   C (  8)   H (  9)   H ( 10)
   C (  8)  2.766945
   H (  9)  3.042512  1.089161
   H ( 10)  3.670610  1.089581  1.768501
   H ( 11)  3.042512  1.089161  1.770493  1.768501
 
 A cutoff of  1.0D-10 yielded   5908 shell pairs
 There are     45258 function pairs (     57710 Cartesian)
 
 -------------------------------------------------------
 OpenMP Integral Computing Module                       
 Release: version 1.0, May 2013, Q-Chem Inc. Pittsburgh 
 -------------------------------------------------------
 Integral Job Info:
 Integral job number is                      11
 Integral operator is                         1
 short-range coefficients                     0
 long-range coefficients              100000000
 Omega coefficients                           0
 if combine SR and LR in K                    0
 Integral screening is                        0
 Integral computing path is                   2
 max size of driver memory is            800000
 size of driver memory is                776718
 size of scratch memory is             29531563
 max col of scratch BK array              10000
 max len of scratch array in speh3          662
 max len of scratch index in speh4           32
 max int batch size is                      520
 min int batch size is                       52
 fixed nKL is                                31
 max L of basis functions is                  3
 order of int derivative is                   0
 number of shells is                        116
 number of basis is                         369
 number of cartesian basis is               369
 number of contracted shell pairs          5908
 number of primitive shell pairs          15902
 maxK2 (contraction) of shell pair          169
 max number of K2 of shell pair               1
 max number of CS2 of shell pair           1075
 max number of PS2 of shell pair           1118
 mem total for path MDJ                  650956
 -------------------------------------------------------
 Smallest overlap matrix eigenvalue = 1.33E-05

 Scale SEOQF with 1.000000e-01/1.000000e-01/1.000000e-01

 Standard Electronic Orientation quadrupole field applied
 Nucleus-field energy     =     0.0000000096 hartrees
 Guess MOs from converged MOs on fragments

-----------------------------------------------------------------
 SCF on fragment 1 out of 2
/home/qwang/software/qchem5.1.2/exe/qcprog.exe /scratch/xuedong/qchem12770/Frg1.input /scratch/xuedong/qchem12770/Frg1/ > /dev/null 
 SCF on fragment 2 out of 2
/home/qwang/software/qchem5.1.2/exe/qcprog.exe /scratch/xuedong/qchem12770/Frg2.input /scratch/xuedong/qchem12770/Frg2/ > /dev/null 
-----------------------------------------------------------------
 Done with SCF on isolated fragments
-----------------------------------------------------------------

 User-specified occupied guess orbitals will be used
 A restricted Hartree-Fock SCF calculation will be
 performed using Pulay DIIS extrapolation
 SCF converges when DIIS error is below 1.0E-07
 using 6 threads for integral computing
 -------------------------------------------------------
 OpenMP Integral computing Module                
 Release: version 1.0, May 2013, Q-Chem Inc. Pittsburgh 
 -------------------------------------------------------
 ---------------------------------------
  Cycle       Energy         DIIS Error
 ---------------------------------------
    1    -406.3835336430      6.66E-05
    2    -406.3836292736      1.29E-05
    3    -406.3836343646      3.92E-06
    4    -406.3836348750      1.29E-06
    5    -406.3836349365      3.91E-07
    6    -406.3836349407      1.50E-07
    7    -406.3836349398      9.68E-08 Convergence criterion met
 ---------------------------------------
 SCF time:  CPU 164.88 s  wall 27.53 s

-----------------------------------------------------------------
 SCF CP correction for fragment 1 out of 2
/home/qwang/software/qchem5.1.2/exe/qcprog.exe /scratch/xuedong/qchem12770/Frg1.input /scratch/xuedong/qchem12770/Frg1BSSE/ > /dev/null 
 SCF CP correction for fragment 2 out of 2
/home/qwang/software/qchem5.1.2/exe/qcprog.exe /scratch/xuedong/qchem12770/Frg2.input /scratch/xuedong/qchem12770/Frg2BSSE/ > /dev/null 
-----------------------------------------------------------------
 Done with counterpoise correction on fragments
-----------------------------------------------------------------

 SCF   energy in the final basis set = -406.38363494
 Total energy in the final basis set = -406.38363494
 
 Components of the MP2 correlation energy:
        aaaa  correlation energy =        -0.0605396505 au
        abab  correlation energy =        -0.4716119744 au
        bbbb  correlation energy =        -0.0605396505 au
        non-Brillouin singles    =        -0.0000000000 au

 Total  MP2   correlation energy =                    -0.59269128 au
        MP2         total energy =                  -406.97632622 au
 
 --------------------------------------------------------------
             Orbital Energies (a.u.) and Symmetries
 --------------------------------------------------------------
 
 Alpha MOs, Restricted
 -- Occupied --                  
-68.771 -20.568 -11.216  -6.120  -4.226  -4.226  -4.226  -1.353
  1 A'    2 A'    3 A'    4 A'    1 A"    5 A'    6 A'    7 A'                 
 -0.957  -0.715  -0.704  -0.587  -0.574  -0.573  -0.511  -0.474
  8 A'    9 A'   10 A'   11 A'    2 A"   12 A'    3 A"    4 A"                 
 -0.474  -0.459
 13 A'   14 A'                                                                 
 -- Virtual --                   
  0.024   0.036   0.043   0.043   0.049   0.067   0.067   0.070
 15 A'   16 A'    5 A"   17 A'   18 A'   19 A'    6 A"   20 A'                 
  0.077   0.078   0.098   0.115   0.131   0.132   0.141   0.143
  7 A"   21 A'   22 A'   23 A'   24 A'    8 A"   25 A'   26 A'                 
  0.154   0.156   0.169   0.172   0.182   0.187   0.191   0.216
  9 A"   27 A'   10 A"   28 A'   29 A'   11 A"   30 A'   31 A'                 
  0.222   0.225   0.232   0.245   0.246   0.247   0.254   0.280
 12 A"   32 A'   33 A'   34 A'   13 A"   35 A'   36 A'   14 A"                 
  0.285   0.290   0.291   0.303   0.309   0.319   0.326   0.328
 37 A'   15 A"   38 A'   16 A"   39 A'   40 A'   17 A"   41 A'                 
  0.330   0.339   0.345   0.356   0.368   0.371   0.377   0.402
 18 A"   42 A'   43 A'   19 A"   44 A'   20 A"   21 A"   45 A'                 
  0.408   0.418   0.431   0.442   0.448   0.453   0.456   0.465
 46 A'   47 A'   48 A'   22 A"   49 A'   50 A'   23 A"   51 A'                 
  0.467   0.475   0.476   0.501   0.511   0.525   0.582   0.593
 52 A'   24 A"   53 A'   25 A"   54 A'   55 A'   56 A'   57 A'                 
  0.599   0.600   0.606   0.641   0.641   0.647   0.649   0.667
 26 A"   58 A'   59 A'   60 A'   27 A"   61 A'   28 A"   29 A"                 
  0.669   0.684   0.686   0.687   0.688   0.715   0.733   0.739
 62 A'   63 A'   30 A"   31 A"   64 A'   65 A'   32 A"   66 A'                 
  0.750   0.764   0.788   0.814   0.817   0.820   0.856   0.872
 33 A"   67 A'   68 A'   69 A'   34 A"   70 A'   71 A'   35 A"                 
  0.876   0.878   0.889   0.907   0.915   0.918   0.926   0.940
 72 A'   36 A"   37 A"   73 A'   74 A'   38 A"   75 A'   39 A"                 
  0.947   0.947   0.954   0.957   0.965   0.984   0.991   0.995
 40 A"   76 A'   77 A'   41 A"   78 A'   79 A'   42 A"   80 A'                 
  1.004   1.033   1.034   1.037   1.054   1.064   1.067   1.084
 81 A'   43 A"   82 A'   83 A'   84 A'   85 A'   44 A"   86 A'                 
  1.088   1.116   1.119   1.139   1.140   1.142   1.155   1.160
 45 A"   87 A'   46 A"   47 A"   88 A'   89 A'   48 A"   90 A'                 
  1.175   1.184   1.188   1.199   1.205   1.224   1.237   1.254
 49 A"   91 A'   50 A"   92 A'   93 A'   51 A"   94 A'   52 A"                 
  1.273   1.278   1.294   1.306   1.308   1.337   1.347   1.357
 95 A'   96 A'   97 A'   53 A"   98 A'   54 A"   99 A'   55 A"                 
  1.375   1.387   1.396   1.424   1.426   1.427   1.439   1.442
100 A'   56 A"  101 A'   57 A"   58 A"  102 A'   59 A"  103 A'                 
  1.448   1.462   1.512   1.521   1.537   1.565   1.593   1.601
104 A'  105 A'   60 A"  106 A'   61 A"  107 A'  108 A'   62 A"                 
  1.605   1.623   1.642   1.643   1.646   1.692   1.697   1.751
109 A'   63 A"  110 A'   64 A"  111 A'   65 A"  112 A'  113 A'                 
  1.792   1.820   1.825   1.838   1.847   1.862   1.890   1.901
114 A'  115 A'   66 A"  116 A'   67 A"  117 A'   68 A"  118 A'                 
  1.996   1.998   2.001   2.016   2.019   2.036   2.052   2.101
119 A'   69 A"  120 A'   70 A"  121 A'  122 A'  123 A'  124 A'                 
  2.120   2.125   2.151   2.151   2.217   2.269   2.271   2.277
 71 A"  125 A'   72 A"  126 A'   73 A"   74 A"  127 A'   75 A"                 
  2.278   2.316   2.342   2.348   2.358   2.360   2.444   2.462
128 A'  129 A'   76 A"  130 A'  131 A'   77 A"   78 A"  132 A'                 
  2.478   2.552   2.703   2.726   2.744   2.803   2.841   2.901
133 A'  134 A'  135 A'   79 A"  136 A'  137 A'  138 A'   80 A"                 
  3.087   3.091   3.122   3.324   3.403   3.404   3.442   3.554
 81 A"  139 A'  140 A'  141 A'   82 A"  142 A'  143 A'   83 A"                 
  3.556   3.604   3.648   3.659   3.662   3.681   3.704   3.705
144 A'   84 A"  145 A'   85 A"  146 A'  147 A'   86 A"  148 A'                 
  3.784   3.818   3.829   3.937   3.939   3.988   4.006   4.021
149 A'   87 A"  150 A'   88 A"  151 A'   89 A"  152 A'   90 A"                 
  4.030   4.032   4.072   4.096   4.106   4.114   4.126   4.127
153 A'   91 A"   92 A"  154 A'   93 A"  155 A'   94 A"  156 A'                 
  4.130   4.170   4.178   4.205   4.206   4.206   4.212   4.215
 95 A"  157 A'  158 A'   96 A"  159 A'  160 A'   97 A"  161 A'                 
  4.271   4.283   4.326   4.326   4.336   4.356   4.385   4.406
162 A'   98 A"  163 A'   99 A"  100 A"  164 A'  101 A"  165 A'                 
  4.415   4.492   4.493   4.503   4.528   4.556   4.580   4.589
102 A"  166 A'  103 A"  167 A'  104 A"  168 A'  169 A'  105 A"                 
  4.590   4.751   4.754   4.763   4.785   4.795   4.795   4.840
170 A'  106 A"  171 A'  172 A'  173 A'  107 A"  174 A'  175 A'                 
  4.842   4.868   4.944   4.999   5.009   5.013   5.054   5.148
108 A"  176 A'  177 A'  109 A"  110 A"  178 A'  179 A'  111 A"                 
  5.154   5.160   5.180   5.233   5.235   5.285   5.327   5.372
180 A'  112 A"  181 A'  113 A"  182 A'  183 A'  184 A'  185 A'                 
  5.530   5.576   5.580   5.581   5.631   5.681   5.936   6.086
114 A"  115 A"  186 A'  116 A"  187 A'  188 A'  189 A'  190 A'                 
  6.090   6.202   6.525   6.681   6.686   6.718   6.925   7.135
117 A"  191 A'  192 A'  118 A"  193 A'  119 A"  194 A'  120 A"                 
  7.263   7.301   7.325   7.352   7.371   7.602   7.904   7.965
121 A"  195 A'  122 A"  196 A'  123 A"  197 A'  198 A'  199 A'                 
  8.828   9.090  15.981  17.213
200 A'  201 A'  202 A'  203 A'                                                 
 
 Beta MOs, Restricted
 -- Occupied --                  
-68.771 -20.568 -11.216  -6.120  -4.226  -4.226  -4.226  -1.353
  1 A'    2 A'    3 A'    4 A'    1 A"    5 A'    6 A'    7 A'                 
 -0.957  -0.715  -0.704  -0.587  -0.574  -0.573  -0.511  -0.474
  8 A'    9 A'   10 A'   11 A'    2 A"   12 A'    3 A"    4 A"                 
 -0.474  -0.459
 13 A'   14 A'                                                                 
 -- Virtual --                   
  0.024   0.036   0.043   0.043   0.049   0.067   0.067   0.070
 15 A'   16 A'    5 A"   17 A'   18 A'   19 A'    6 A"   20 A'                 
  0.077   0.078   0.098   0.115   0.131   0.132   0.141   0.143
  7 A"   21 A'   22 A'   23 A'   24 A'    8 A"   25 A'   26 A'                 
  0.154   0.156   0.169   0.172   0.182   0.187   0.191   0.216
  9 A"   27 A'   10 A"   28 A'   29 A'   11 A"   30 A'   31 A'                 
  0.222   0.225   0.232   0.245   0.246   0.247   0.254   0.280
 12 A"   32 A'   33 A'   34 A'   13 A"   35 A'   36 A'   14 A"                 
  0.285   0.290   0.291   0.303   0.309   0.319   0.326   0.328
 37 A'   15 A"   38 A'   16 A"   39 A'   40 A'   17 A"   41 A'                 
  0.330   0.339   0.345   0.356   0.368   0.371   0.377   0.402
 18 A"   42 A'   43 A'   19 A"   44 A'   20 A"   21 A"   45 A'                 
  0.408   0.418   0.431   0.442   0.448   0.453   0.456   0.465
 46 A'   47 A'   48 A'   22 A"   49 A'   50 A'   23 A"   51 A'                 
  0.467   0.475   0.476   0.501   0.511   0.525   0.582   0.593
 52 A'   24 A"   53 A'   25 A"   54 A'   55 A'   56 A'   57 A'                 
  0.599   0.600   0.606   0.641   0.641   0.647   0.649   0.667
 26 A"   58 A'   59 A'   60 A'   27 A"   61 A'   28 A"   29 A"                 
  0.669   0.684   0.686   0.687   0.688   0.715   0.733   0.739
 62 A'   63 A'   30 A"   31 A"   64 A'   65 A'   32 A"   66 A'                 
  0.750   0.764   0.788   0.814   0.817   0.820   0.856   0.872
 33 A"   67 A'   68 A'   69 A'   34 A"   70 A'   71 A'   35 A"                 
  0.876   0.878   0.889   0.907   0.915   0.918   0.926   0.940
 72 A'   36 A"   37 A"   73 A'   74 A'   38 A"   75 A'   39 A"                 
  0.947   0.947   0.954   0.957   0.965   0.984   0.991   0.995
 40 A"   76 A'   77 A'   41 A"   78 A'   79 A'   42 A"   80 A'                 
  1.004   1.033   1.034   1.037   1.054   1.064   1.067   1.084
 81 A'   43 A"   82 A'   83 A'   84 A'   85 A'   44 A"   86 A'                 
  1.088   1.116   1.119   1.139   1.140   1.142   1.155   1.160
 45 A"   87 A'   46 A"   47 A"   88 A'   89 A'   48 A"   90 A'                 
  1.175   1.184   1.188   1.199   1.205   1.224   1.237   1.254
 49 A"   91 A'   50 A"   92 A'   93 A'   51 A"   94 A'   52 A"                 
  1.273   1.278   1.294   1.306   1.308   1.337   1.347   1.357
 95 A'   96 A'   97 A'   53 A"   98 A'   54 A"   99 A'   55 A"                 
  1.375   1.387   1.396   1.424   1.426   1.427   1.439   1.442
100 A'   56 A"  101 A'   57 A"   58 A"  102 A'   59 A"  103 A'                 
  1.448   1.462   1.512   1.521   1.537   1.565   1.593   1.601
104 A'  105 A'   60 A"  106 A'   61 A"  107 A'  108 A'   62 A"                 
  1.605   1.623   1.642   1.643   1.646   1.692   1.697   1.751
109 A'   63 A"  110 A'   64 A"  111 A'   65 A"  112 A'  113 A'                 
  1.792   1.820   1.825   1.838   1.847   1.862   1.890   1.901
114 A'  115 A'   66 A"  116 A'   67 A"  117 A'   68 A"  118 A'                 
  1.996   1.998   2.001   2.016   2.019   2.036   2.052   2.101
119 A'   69 A"  120 A'   70 A"  121 A'  122 A'  123 A'  124 A'                 
  2.120   2.125   2.151   2.151   2.217   2.269   2.271   2.277
 71 A"  125 A'   72 A"  126 A'   73 A"   74 A"  127 A'   75 A"                 
  2.278   2.316   2.342   2.348   2.358   2.360   2.444   2.462
128 A'  129 A'   76 A"  130 A'  131 A'   77 A"   78 A"  132 A'                 
  2.478   2.552   2.703   2.726   2.744   2.803   2.841   2.901
133 A'  134 A'  135 A'   79 A"  136 A'  137 A'  138 A'   80 A"                 
  3.087   3.091   3.122   3.324   3.403   3.404   3.442   3.554
 81 A"  139 A'  140 A'  141 A'   82 A"  142 A'  143 A'   83 A"                 
  3.556   3.604   3.648   3.659   3.662   3.681   3.704   3.705
144 A'   84 A"  145 A'   85 A"  146 A'  147 A'   86 A"  148 A'                 
  3.784   3.818   3.829   3.937   3.939   3.988   4.006   4.021
149 A'   87 A"  150 A'   88 A"  151 A'   89 A"  152 A'   90 A"                 
  4.030   4.032   4.072   4.096   4.106   4.114   4.126   4.127
153 A'   91 A"   92 A"  154 A'   93 A"  155 A'   94 A"  156 A'                 
  4.130   4.170   4.178   4.205   4.206   4.206   4.212   4.215
 95 A"  157 A'  158 A'   96 A"  159 A'  160 A'   97 A"  161 A'                 
  4.271   4.283   4.326   4.326   4.336   4.356   4.385   4.406
162 A'   98 A"  163 A'   99 A"  100 A"  164 A'  101 A"  165 A'                 
  4.415   4.492   4.493   4.503   4.528   4.556   4.580   4.589
102 A"  166 A'  103 A"  167 A'  104 A"  168 A'  169 A'  105 A"                 
  4.590   4.751   4.754   4.763   4.785   4.795   4.795   4.840
170 A'  106 A"  171 A'  172 A'  173 A'  107 A"  174 A'  175 A'                 
  4.842   4.868   4.944   4.999   5.009   5.013   5.054   5.148
108 A"  176 A'  177 A'  109 A"  110 A"  178 A'  179 A'  111 A"                 
  5.154   5.160   5.180   5.233   5.235   5.285   5.327   5.372
180 A'  112 A"  181 A'  113 A"  182 A'  183 A'  184 A'  185 A'                 
  5.530   5.576   5.580   5.581   5.631   5.681   5.936   6.086
114 A"  115 A"  186 A'  116 A"  187 A'  188 A'  189 A'  190 A'                 
  6.090   6.202   6.525   6.681   6.686   6.718   6.925   7.135
117 A"  191 A'  192 A'  118 A"  193 A'  119 A"  194 A'  120 A"                 
  7.263   7.301   7.325   7.352   7.371   7.602   7.904   7.965
121 A"  195 A'  122 A"  196 A'  123 A"  197 A'  198 A'  199 A'                 
  8.828   9.090  15.981  17.213
200 A'  201 A'  202 A'  203 A'                                                 
 --------------------------------------------------------------
 
          Ground-State Mulliken Net Atomic Charges

     Atom                 Charge (a.u.)
  ----------------------------------------
      1 O                    -0.477493
      2 H                     0.209988
      3 H                     0.265892
      4 Si                    1.337652
      5 H                    -0.383791
      6 H                    -0.383791
      7 H                    -0.388521
      8 C                    -1.085198
      9 H                     0.301739
     10 H                     0.301784
     11 H                     0.301739
  ----------------------------------------
  Sum of atomic charges =     0.000000

 -----------------------------------------------------------------
                    Cartesian Multipole Moments
 -----------------------------------------------------------------
    Charge (ESU x 10^10)
                 0.0000
    Dipole Moment (Debye)
         X      -0.7611      Y       1.5445      Z       0.0000
       Tot       1.7219
    Quadrupole Moments (Debye-Ang)
        XX     -41.2620     XY       7.4726     YY     -28.7371
        XZ      -0.0000     YZ      -0.0000     ZZ     -30.7695
    Octopole Moments (Debye-Ang^2)
       XXX     -12.0917    XXY      35.3012    XYY      17.7705
       YYY       0.0117    XXZ       0.0000    XYZ       0.0000
       YYZ      -0.0000    XZZ       8.6149    YZZ       2.1909
       ZZZ       0.0000
    Hexadecapole Moments (Debye-Ang^3)
      XXXX   -1508.7453   XXXY     168.6659   XXYY    -207.0762
      XYYY      10.4748   YYYY     -63.5731   XXXZ      -0.0000
      XXYZ      -0.0000   XYYZ       0.0000   YYYZ      -0.0000
      XXZZ    -245.9715   XYZZ      -2.0621   YYZZ     -21.3616
      XZZZ      -0.0000   YZZZ      -0.0000   ZZZZ     -63.5812
 -----------------------------------------------------------------

 ---------------------------------------------------------------------
 *                     Fragment's binding energy                     *
 ---------------------------------------------------------------------
    Fragment           E(TOTAL)         E(CP-CORR)           DE(BSSE)
 ---------------------------------------------------------------------
           1     -76.3289736878     -76.3290682281       0.0000945403
           2    -330.6467076863    -330.6467749194       0.0000672331
     Complex    -406.9763262152
 ---------------------------------------------------------------------
  DE, kJ/mol      -1.6930503319      -1.2683091661
 ---------------------------------------------------------------------

Archival summary:
1\1\gm4.localdomain\SP\MP2\BasisUnspecified\i1118\xuedong\WedJul1012:08:162019WedJul1012:08:162019\0\\#,MP2,BasisUnspecified,\\0,1\Si\H,1,1.47981\H,1,1.47981,2,108.77\H,1,1.48021,2,108.696,3,-118.191,0\C,1,1.88156,2,110.211,3,120.926,0\H,5,1.08916,1,110.482,2,-179.846,0\H,5,1.08916,1,110.482,2,59.7863,0\H,5,1.08958,1,110.033,2,-60.0298,0\H,8,3.365,5,98.1496,1,180,0\O,9,0.959766,8,166.658,5,180,0\H,10,0.959291,9,103.478,8,180,0\\HF=-406.383635\MP2=-406.976326\\@

 Total job time:  298.36s(wall), 548.90s(cpu) 
 Wed Jul 10 12:08:16 2019

        *************************************************************
        *                                                           *
        *  Thank you very much for using Q-Chem.  Have a nice day.  *
        *                                                           *
        *************************************************************


