
Running Job 1 of 1 ../qm_inp/SiH3CH3_water.con2.080.qcinp
qchem ../qm_inp/SiH3CH3_water.con2.080.qcinp_11283.0 /scratch/xuedong/qchem11283/ 1
/home/qwang/software/qchem5.1.2/exe/qcprog.exe_s ../qm_inp/SiH3CH3_water.con2.080.qcinp_11283.0 /scratch/xuedong/qchem11283/
Check license passed

                  Welcome to Q-Chem
     A Quantum Leap Into The Future Of Chemistry


 Q-Chem 5.1, Q-Chem, Inc., Pleasanton, CA (2018)

 Yihan Shao,  Zhengting Gan,  E. Epifanovsky,  A. T. B. Gilbert,  M. Wormit,  
 J. Kussmann,  A. W. Lange,  A. Behn,  Jia Deng,  Xintian Feng,  D. Ghosh,  
 M. Goldey,  P. R. Horn,  L. D. Jacobson,  I. Kaliman,  T. Kus,  A. Landau,  
 Jie Liu,  E. I. Proynov,  R. M. Richard,  R. P. Steele,  E. J. Sundstrom,  
 H. L. Woodcock III,  P. M. Zimmerman,  D. Zuev,  B. Albrecht,  E. Alguire,  
 S. A. Baeppler,  D. Barton,  Z. Benda,  Y. A. Bernard,  E. J. Berquist,  
 K. B. Bravaya,  H. Burton,  D. Casanova,  Chun-Min Chang,  Yunqing Chen,  
 A. Chien,  K. D. Closser,  M. P. Coons,  S. Coriani,  S. Dasgupta,  
 A. L. Dempwolff,  M. Diedenhofen,  Hainam Do,  R. G. Edgar,  Po-Tung Fang,  
 S. Faraji,  S. Fatehi,  Qingguo Feng,  K. D. Fenk,  J. Fosso-Tande,  
 J. Gayvert,  Qinghui Ge,  A. Ghysels,  G. Gidofalvi,  J. Gomes,  
 J. Gonthier,  A. Gunina,  D. Hait,  M. W. D. Hanson-Heine,  
 P. H. P. Harbach,  A. W. Hauser,  J. E. Herr,  E. G. Hohenstein,  
 Z. C. Holden,  Kerwin Hui,  B. C. Huynh,  T.-C. Jagau,  Hyunjun Ji,  
 B. Kaduk,  K. Khistyaev,  Jaehoon Kim,  P. Klunzinger,  K. Koh,  
 D. Kosenkov,  L. Koulias,  T. Kowalczyk,  C. M. Krauter,  A. Kunitsa,  
 Ka Un Lao,  A. Laurent,  K. V. Lawler,  Joonho Lee,  D. Lefrancois,  
 S. Lehtola,  D. S. Levine,  Yi-Pei Li,  You-Sheng Lin,  Fenglai Liu,  
 E. Livshits,  A. Luenser,  P. Manohar,  E. Mansoor,  S. F. Manzer,  
 Shan-Ping Mao,  Yuezhi Mao,  N. Mardirossian,  A. V. Marenich,  
 T. Markovich,  L. A. Martinez-Martinez,  S. A. Maurer,  N. J. Mayhall,  
 S. C. McKenzie,  J.-M. Mewes,  A. F. Morrison,  J. W. Mullinax,  K. Nanda,  
 T. S. Nguyen-Beck,  R. Olivares-Amaya,  J. A. Parkhill,  T. M. Perrine,  
 F. Plasser,  P. Pokhilko,  S. Prager,  A. Prociuk,  E. Ramos,  D. R. Rehn,  
 F. Rob,  M. Schneider,  N. Sergueev,  S. M. Sharada,  S. Sharma,  
 D. W. Small,  T. Stauch,  T. Stein,  Yu-Chuan Su,  A. J. W. Thom,  
 A. Tkatchenko,  T. Tsuchimochi,  N. M. Tubman,  L. Vogt,  M. L. Vidal,  
 O. Vydrov,  M. A. Watson,  J. Wenzel,  M. de Wergifosse,  T. A. Wesolowski,  
 A. White,  J. Witte,  A. Yamada,  Jun Yang,  K. Yao,  S. Yeganeh,  
 S. R. Yost,  Zhi-Qiang You,  A. Zech,  Igor Ying Zhang,  Xing Zhang,  
 Yan Zhao,  Ying Zhu,  B. R. Brooks,  G. K. L. Chan,  C. J. Cramer,  
 M. S. Gordon,  W. J. Hehre,  A. Klamt,  M. W. Schmidt,  C. D. Sherrill,  
 D. G. Truhlar,  A. Aspuru-Guzik,  R. Baer,  A. T. Bell,  N. A. Besley,  
 Jeng-Da Chai,  A. E. DePrince, III,  R. A. DiStasio Jr.,  A. Dreuw,  
 B. D. Dunietz,  T. R. Furlani,  Chao-Ping Hsu,  Yousung Jung,  Jing Kong,  
 D. S. Lambrecht,  WanZhen Liang,  C. Ochsenfeld,  V. A. Rassolov,  
 L. V. Slipchenko,  J. E. Subotnik,  T. Van Voorhis,  J. M. Herbert,  
 A. I. Krylov,  P. M. W. Gill,  M. Head-Gordon

 Contributors to earlier versions of Q-Chem not listed above: 
 R. D. Adamson,  B. Austin,  J. Baker,  G. J. O. Beran,  K. Brandhorst,  
 S. T. Brown,  E. F. C. Byrd,  A. K. Chakraborty,  C.-L. Cheng,  
 Siu Hung Chien,  D. M. Chipman,  D. L. Crittenden,  H. Dachsel,  
 R. J. Doerksen,  A. D. Dutoi,  L. Fusti-Molnar,  W. A. Goddard III,  
 A. Golubeva-Zadorozhnaya,  S. R. Gwaltney,  G. Hawkins,  A. Heyden,  
 S. Hirata,  G. Kedziora,  F. J. Keil,  C. Kelley,  Jihan Kim,  R. A. King,  
 R. Z. Khaliullin,  P. P. Korambath,  W. Kurlancheek,  A. M. Lee,  M. S. Lee,  
 S. V. Levchenko,  Ching Yeh Lin,  D. Liotard,  R. C. Lochan,  I. Lotan,  
 P. E. Maslen,  N. Nair,  D. P. O'Neill,  D. Neuhauser,  E. Neuscamman,  
 C. M. Oana,  R. Olson,  B. Peters,  R. Peverati,  P. A. Pieniazek,  
 Y. M. Rhee,  J. Ritchie,  M. A. Rohrdanz,  E. Rosta,  N. J. Russ,  
 H. F. Schaefer III,  N. E. Schultz,  N. Shenvi,  A. C. Simmonett,  A. Sodt,  
 D. Stuck,  K. S. Thanthiriwatte,  V. Vanovschi,  Tao Wang,  A. Warshel,  
 C. F. Williams,  Q. Wu,  X. Xu,  W. Zhang

 Please cite Q-Chem as follows:
 Y. Shao et al., Mol. Phys. 113, 184-215 (2015)
 DOI: 10.1080/00268976.2014.952696

 Q-Chem 5.1.2 for Intel X86 EM64T Linux

 Parts of Q-Chem use Armadillo 8.300.2 (Tropical Shenanigans).
 http://arma.sourceforge.net/

 Q-Chem begins on Wed Jul 10 11:08:51 2019  

Host: 
0

     Scratch files written to /scratch/xuedong/qchem11283//
 Dec218 |scratch|qcdevops|jenkins|workspace|build_RNUM 6581   
Processing $rem in /home/qwang/software/qchem5.1.2/config/preferences.
 MEM_TOTAL  4000 
Core orbitals will be frozen
Input Ideriv = 1
Curr. Ideriv = -1
Max.  Ideriv = 1

Checking the input file for inconsistencies... 	...done.

--------------------------------------------------------------
User input:
--------------------------------------------------------------
$molecule
0 1
--
0 1
O     2.682746157     0.252087281     0.000000000
H     3.094283083     1.118876774     0.000000000
H     3.423599950    -0.357576759     0.000000000
--
0 1
Si     0.227373494     0.042414345     0.000000000
H     0.744595996    -0.635329952    -1.208291248
H     0.744595996    -0.635329952     1.208291248
H     0.667111329     1.455595762     0.000000000
C    -1.655016722    -0.023830937     0.000000000
H    -2.062384481     0.470166298     0.880759883
H    -2.007739474    -1.054067431     0.000000000
H    -2.062384481     0.470166298    -0.880759883
$end

$rem
BASIS = aug-cc-pVTZ
JOB_TYPE  =  BSSE
METHOD  =  MP2
SCF_CONVERGENCE  =  7
SCF_MAX_CYCLES  =  200
$end

--------------------------------------------------------------
 ----------------------------------------------------------------
             Standard Nuclear Orientation (Angstroms)
    I     Atom           X                Y                Z
 ----------------------------------------------------------------
    1      O       2.2092075834     0.0083431206     0.0000000000
    2      H       2.6794437212     0.8447429301     0.0000000000
    3      H       2.9063300886    -0.6508797530    -0.0000000000
    4      Si     -0.2547743905    -0.0317877457    -0.0000000000
    5      H       0.2145603379    -0.7435330381    -1.2082912480
    6      H       0.2145603379    -0.7435330381     1.2082912480
    7      H       0.2812130815     1.3477659904     0.0000000000
    8      C      -2.1372589292     0.0317207115     0.0000000000
    9      H      -2.5096499717     0.5525917807     0.8807598830
   10      H      -2.5600732488    -0.9717874472    -0.0000000000
   11      H      -2.5096499717     0.5525917807    -0.8807598830
 ----------------------------------------------------------------
 Molecular Point Group                 Cs    NOp =  2
 Largest Abelian Subgroup              Cs    NOp =  2
 Nuclear Repulsion Energy =   117.3851205908 hartrees
 There are       18 alpha and       18 beta electrons
 Requested basis set is aug-cc-pVTZ
 There are 116 shells and 326 basis functions

 Total QAlloc Memory Limit   4000 MB
 Mega-Array Size       188 MB
 MEM_STATIC part       192 MB

                       Distance Matrix (Angstroms)
             O (  1)   H (  2)   H (  3)   Si(  4)   H (  5)   H (  6)
   H (  2)  0.959524
   H (  3)  0.959455  1.512734
   Si(  4)  2.464309  3.062343  3.221158
   H (  5)  2.450286  3.171473  2.951978  1.478791
   H (  6)  2.450286  3.171473  2.951978  1.478791  2.416582
   H (  7)  2.347598  2.450417  3.299367  1.480017  2.416183  2.416183
   C (  8)  4.346529  4.884837  5.089571  1.883556  2.755366  2.755366
   H (  9)  4.831104  5.271412  5.617555  2.490322  3.669523  3.034557
   H ( 10)  4.868952  5.545477  5.475815  2.489579  3.034907  3.034907
   H ( 11)  4.831104  5.271412  5.617555  2.490322  3.034557  3.669523
             H (  7)   C (  8)   H (  9)   H ( 10)
   C (  8)  2.753358
   H (  9)  3.032648  1.088908
   H ( 10)  3.667865  1.088945  1.761253
   H ( 11)  3.032648  1.088908  1.761520  1.761253
 
 A cutoff of  1.0D-10 yielded   6399 shell pairs
 There are     50183 function pairs (     64321 Cartesian)
 
 -------------------------------------------------------
 OpenMP Integral Computing Module                       
 Release: version 1.0, May 2013, Q-Chem Inc. Pittsburgh 
 -------------------------------------------------------
 Integral Job Info:
 Integral job number is                      11
 Integral operator is                         1
 short-range coefficients                     0
 long-range coefficients              100000000
 Omega coefficients                           0
 if combine SR and LR in K                    0
 Integral screening is                        0
 Integral computing path is                   2
 max size of driver memory is            800000
 size of driver memory is                776718
 size of scratch memory is             29531563
 max col of scratch BK array              10000
 max len of scratch array in speh3          662
 max len of scratch index in speh4           32
 max int batch size is                      520
 min int batch size is                       52
 fixed nKL is                                31
 max L of basis functions is                  3
 order of int derivative is                   0
 number of shells is                        116
 number of basis is                         369
 number of cartesian basis is               369
 number of contracted shell pairs          6399
 number of primitive shell pairs          17535
 maxK2 (contraction) of shell pair          169
 max number of K2 of shell pair               1
 max number of CS2 of shell pair           1120
 max number of PS2 of shell pair           1248
 mem total for path MDJ                  664892
 -------------------------------------------------------
 Smallest overlap matrix eigenvalue = 1.26E-05

 Scale SEOQF with 1.000000e-01/1.000000e-01/1.000000e-01

 Standard Electronic Orientation quadrupole field applied
 Nucleus-field energy     =     0.0000000036 hartrees
 Guess MOs from converged MOs on fragments

-----------------------------------------------------------------
 SCF on fragment 1 out of 2
/home/qwang/software/qchem5.1.2/exe/qcprog.exe /scratch/xuedong/qchem11283/Frg1.input /scratch/xuedong/qchem11283/Frg1/ > /dev/null 
 SCF on fragment 2 out of 2
/home/qwang/software/qchem5.1.2/exe/qcprog.exe /scratch/xuedong/qchem11283/Frg2.input /scratch/xuedong/qchem11283/Frg2/ > /dev/null 
-----------------------------------------------------------------
 Done with SCF on isolated fragments
-----------------------------------------------------------------

 User-specified occupied guess orbitals will be used
 A restricted Hartree-Fock SCF calculation will be
 performed using Pulay DIIS extrapolation
 SCF converges when DIIS error is below 1.0E-07
 using 6 threads for integral computing
 -------------------------------------------------------
 OpenMP Integral computing Module                
 Release: version 1.0, May 2013, Q-Chem Inc. Pittsburgh 
 -------------------------------------------------------
 ---------------------------------------
  Cycle       Energy         DIIS Error
 ---------------------------------------
    1    -406.3604444475      5.98E-04
    2    -406.3689359707      1.75E-04
    3    -406.3696493140      9.21E-05
    4    -406.3697580335      1.78E-05
    5    -406.3697676218      3.10E-06
    6    -406.3697679256      7.75E-07
    7    -406.3697679404      2.34E-07
    8    -406.3697679436      5.78E-08 Convergence criterion met
 ---------------------------------------
 SCF time:  CPU 273.88 s  wall 45.70 s

-----------------------------------------------------------------
 SCF CP correction for fragment 1 out of 2
/home/qwang/software/qchem5.1.2/exe/qcprog.exe /scratch/xuedong/qchem11283/Frg1.input /scratch/xuedong/qchem11283/Frg1BSSE/ > /dev/null 
 SCF CP correction for fragment 2 out of 2
/home/qwang/software/qchem5.1.2/exe/qcprog.exe /scratch/xuedong/qchem11283/Frg2.input /scratch/xuedong/qchem11283/Frg2BSSE/ > /dev/null 
-----------------------------------------------------------------
 Done with counterpoise correction on fragments
-----------------------------------------------------------------

 SCF   energy in the final basis set = -406.36976794
 Total energy in the final basis set = -406.36976794
 
 Components of the MP2 correlation energy:
        aaaa  correlation energy =        -0.0621297299 au
        abab  correlation energy =        -0.4752396135 au
        bbbb  correlation energy =        -0.0621297299 au
        non-Brillouin singles    =        -0.0000000000 au

 Total  MP2   correlation energy =                    -0.59949907 au
        MP2         total energy =                  -406.96926702 au
 
 --------------------------------------------------------------
             Orbital Energies (a.u.) and Symmetries
 --------------------------------------------------------------
 
 Alpha MOs, Restricted
 -- Occupied --                  
-68.744 -20.581 -11.184  -6.091  -4.197  -4.197  -4.197  -1.374
  1 A'    2 A'    3 A'    4 A'    5 A'    1 A"    6 A'    7 A'                 
 -0.927  -0.736  -0.699  -0.594  -0.546  -0.543  -0.534  -0.448
  8 A'    9 A'   10 A'   11 A'    2 A"   12 A'    3 A"   13 A'                 
 -0.440  -0.418
  4 A"   14 A'                                                                 
 -- Virtual --                   
  0.023   0.037   0.045   0.050   0.057   0.061   0.072   0.074
 15 A'   16 A'   17 A'    5 A"   18 A'   19 A'    6 A"   20 A'                 
  0.083   0.091   0.096   0.120   0.139   0.139   0.145   0.164
  7 A"   21 A'   22 A'   23 A'    8 A"   24 A'   25 A'   26 A'                 
  0.168   0.171   0.179   0.185   0.193   0.219   0.223   0.228
  9 A"   27 A'   28 A'   10 A"   29 A'   30 A'   31 A'   11 A"                 
  0.236   0.241   0.251   0.268   0.273   0.282   0.287   0.302
 12 A"   32 A'   33 A'   13 A"   34 A'   35 A'   14 A"   15 A"                 
  0.321   0.338   0.341   0.344   0.350   0.351   0.355   0.362
 36 A'   37 A'   16 A"   38 A'   17 A"   39 A'   40 A'   41 A'                 
  0.370   0.380   0.380   0.386   0.395   0.398   0.411   0.424
 42 A'   18 A"   43 A'   19 A"   44 A'   20 A"   45 A'   21 A"                 
  0.425   0.440   0.444   0.447   0.457   0.465   0.474   0.477
 46 A'   47 A'   48 A'   22 A"   49 A'   50 A'   51 A'   23 A"                 
  0.487   0.490   0.500   0.510   0.520   0.535   0.553   0.618
 52 A'   24 A"   53 A'   54 A'   25 A"   55 A'   56 A'   57 A'                 
  0.620   0.628   0.648   0.663   0.668   0.670   0.693   0.693
 26 A"   58 A'   59 A'   27 A"   60 A'   28 A"   29 A"   61 A'                 
  0.695   0.700   0.709   0.715   0.734   0.755   0.762   0.786
 30 A"   62 A'   63 A'   31 A"   64 A'   65 A'   32 A"   66 A'                 
  0.794   0.821   0.836   0.844   0.862   0.877   0.898   0.903
 67 A'   33 A"   68 A'   34 A"   69 A'   70 A'   35 A"   71 A'                 
  0.904   0.920   0.923   0.944   0.957   0.958   0.977   0.978
 36 A"   72 A'   37 A"   73 A'   74 A'   38 A"   75 A'   39 A"                 
  0.990   1.007   1.017   1.024   1.028   1.052   1.054   1.058
 76 A'   40 A"   77 A'   78 A'   41 A"   79 A'   42 A"   80 A'                 
  1.072   1.074   1.091   1.127   1.131   1.148   1.157   1.166
 81 A'   43 A"   82 A'   83 A'   84 A'   44 A"   45 A"   85 A'                 
  1.169   1.171   1.194   1.194   1.212   1.214   1.216   1.226
 46 A"   86 A'   87 A'   47 A"   88 A'   48 A"   89 A'   90 A'                 
  1.230   1.248   1.260   1.275   1.276   1.306   1.325   1.332
 49 A"   50 A"   91 A'   51 A"   92 A'   93 A'   52 A"   94 A'                 
  1.345   1.350   1.369   1.382   1.395   1.411   1.425   1.435
 95 A'   53 A"   96 A'   54 A"   97 A'   55 A"   98 A'   99 A'                 
  1.445   1.453   1.454   1.456   1.480   1.508   1.516   1.518
 56 A"  100 A'   57 A"  101 A'   58 A"  102 A'   59 A"  103 A'                 
  1.535   1.598   1.614   1.626   1.650   1.661   1.665   1.689
104 A'  105 A'   60 A"  106 A'   61 A"   62 A"  107 A'  108 A'                 
  1.701   1.706   1.736   1.747   1.759   1.784   1.791   1.814
 63 A"  109 A'  110 A'  111 A'   64 A"  112 A'   65 A"  113 A'                 
  1.852   1.861   1.878   1.888   1.920   1.923   1.956   2.007
114 A'   66 A"  115 A'   67 A"   68 A"  116 A'  117 A'   69 A"                 
  2.009   2.044   2.055   2.060   2.072   2.081   2.127   2.157
118 A'  119 A'   70 A"  120 A'  121 A'  122 A'  123 A'   71 A"                 
  2.185   2.199   2.201   2.229   2.246   2.280   2.281   2.325
124 A'  125 A'   72 A"  126 A'   73 A"   74 A"  127 A'  128 A'                 
  2.325   2.345   2.353   2.388   2.403   2.548   2.560   2.618
 75 A"  129 A'   76 A"  130 A'   77 A"  131 A'   78 A"  132 A'                 
  2.719   2.768   2.773   2.821   2.837   2.903   2.920   2.957
133 A'  134 A'  135 A'  136 A'   79 A"   80 A"  137 A'  138 A'                 
  3.142   3.162   3.175   3.402   3.436   3.440   3.592   3.594
 81 A"  139 A'  140 A'  141 A'   82 A"  142 A'  143 A'   83 A"                 
  3.608   3.634   3.657   3.683   3.687   3.784   3.823   3.831
144 A'   84 A"  145 A'   85 A"  146 A'  147 A'   86 A"  148 A'                 
  3.854   3.857   3.924   3.961   3.983   4.011   4.033   4.062
 87 A"  149 A'  150 A'   88 A"  151 A'   89 A"   90 A"  152 A'                 
  4.107   4.131   4.138   4.143   4.154   4.166   4.178   4.180
 91 A"   92 A"  153 A'  154 A'   93 A"  155 A'   94 A"  156 A'                 
  4.207   4.207   4.233   4.238   4.261   4.276   4.308   4.331
157 A'   95 A"   96 A"  158 A'  159 A'  160 A'   97 A"  161 A'                 
  4.334   4.385   4.397   4.404   4.418   4.512   4.514   4.518
 98 A"   99 A"  100 A"  162 A'  163 A'  164 A'  165 A'  101 A"                 
  4.556   4.569   4.571   4.593   4.600   4.642   4.653   4.713
102 A"  103 A"  166 A'  104 A"  167 A'  168 A'  169 A'  105 A"                 
  4.753   4.793   4.796   4.853   4.878   4.892   4.896   4.897
170 A'  106 A"  171 A'  172 A'  173 A'  107 A"  174 A'  108 A"                 
  4.933   4.965   5.030   5.042   5.063   5.076   5.124   5.180
175 A'  176 A'  109 A"  177 A'  110 A"  178 A'  179 A'  180 A'                 
  5.183   5.193   5.252   5.294   5.303   5.373   5.452   5.513
111 A"  112 A"  181 A'  182 A'  113 A"  183 A'  184 A'  185 A'                 
  5.542   5.578   5.624   5.634   5.643   5.955   6.009   6.128
114 A"  115 A"  116 A"  186 A'  187 A'  188 A'  189 A'  117 A"                 
  6.131   6.335   6.629   6.717   6.722   6.799   7.063   7.161
190 A'  191 A'  192 A'  118 A"  193 A'  119 A"  194 A'  120 A"                 
  7.302   7.324   7.374   7.393   7.542   7.713   7.920   7.964
121 A"  195 A'  122 A"  123 A"  196 A'  197 A'  198 A'  199 A'                 
  8.869   9.551  16.220  17.082
200 A'  201 A'  202 A'  203 A'                                                 
 
 Beta MOs, Restricted
 -- Occupied --                  
-68.744 -20.581 -11.184  -6.091  -4.197  -4.197  -4.197  -1.374
  1 A'    2 A'    3 A'    4 A'    5 A'    1 A"    6 A'    7 A'                 
 -0.927  -0.736  -0.699  -0.594  -0.546  -0.543  -0.534  -0.448
  8 A'    9 A'   10 A'   11 A'    2 A"   12 A'    3 A"   13 A'                 
 -0.440  -0.418
  4 A"   14 A'                                                                 
 -- Virtual --                   
  0.023   0.037   0.045   0.050   0.057   0.061   0.072   0.074
 15 A'   16 A'   17 A'    5 A"   18 A'   19 A'    6 A"   20 A'                 
  0.083   0.091   0.096   0.120   0.139   0.139   0.145   0.164
  7 A"   21 A'   22 A'   23 A'    8 A"   24 A'   25 A'   26 A'                 
  0.168   0.171   0.179   0.185   0.193   0.219   0.223   0.228
  9 A"   27 A'   28 A'   10 A"   29 A'   30 A'   31 A'   11 A"                 
  0.236   0.241   0.251   0.268   0.273   0.282   0.287   0.302
 12 A"   32 A'   33 A'   13 A"   34 A'   35 A'   14 A"   15 A"                 
  0.321   0.338   0.341   0.344   0.350   0.351   0.355   0.362
 36 A'   37 A'   16 A"   38 A'   17 A"   39 A'   40 A'   41 A'                 
  0.370   0.380   0.380   0.386   0.395   0.398   0.411   0.424
 42 A'   18 A"   43 A'   19 A"   44 A'   20 A"   45 A'   21 A"                 
  0.425   0.440   0.444   0.447   0.457   0.465   0.474   0.477
 46 A'   47 A'   48 A'   22 A"   49 A'   50 A'   51 A'   23 A"                 
  0.487   0.490   0.500   0.510   0.520   0.535   0.553   0.618
 52 A'   24 A"   53 A'   54 A'   25 A"   55 A'   56 A'   57 A'                 
  0.620   0.628   0.648   0.663   0.668   0.670   0.693   0.693
 26 A"   58 A'   59 A'   27 A"   60 A'   28 A"   29 A"   61 A'                 
  0.695   0.700   0.709   0.715   0.734   0.755   0.762   0.786
 30 A"   62 A'   63 A'   31 A"   64 A'   65 A'   32 A"   66 A'                 
  0.794   0.821   0.836   0.844   0.862   0.877   0.898   0.903
 67 A'   33 A"   68 A'   34 A"   69 A'   70 A'   35 A"   71 A'                 
  0.904   0.920   0.923   0.944   0.957   0.958   0.977   0.978
 36 A"   72 A'   37 A"   73 A'   74 A'   38 A"   75 A'   39 A"                 
  0.990   1.007   1.017   1.024   1.028   1.052   1.054   1.058
 76 A'   40 A"   77 A'   78 A'   41 A"   79 A'   42 A"   80 A'                 
  1.072   1.074   1.091   1.127   1.131   1.148   1.157   1.166
 81 A'   43 A"   82 A'   83 A'   84 A'   44 A"   45 A"   85 A'                 
  1.169   1.171   1.194   1.194   1.212   1.214   1.216   1.226
 46 A"   86 A'   87 A'   47 A"   88 A'   48 A"   89 A'   90 A'                 
  1.230   1.248   1.260   1.275   1.276   1.306   1.325   1.332
 49 A"   50 A"   91 A'   51 A"   92 A'   93 A'   52 A"   94 A'                 
  1.345   1.350   1.369   1.382   1.395   1.411   1.425   1.435
 95 A'   53 A"   96 A'   54 A"   97 A'   55 A"   98 A'   99 A'                 
  1.445   1.453   1.454   1.456   1.480   1.508   1.516   1.518
 56 A"  100 A'   57 A"  101 A'   58 A"  102 A'   59 A"  103 A'                 
  1.535   1.598   1.614   1.626   1.650   1.661   1.665   1.689
104 A'  105 A'   60 A"  106 A'   61 A"   62 A"  107 A'  108 A'                 
  1.701   1.706   1.736   1.747   1.759   1.784   1.791   1.814
 63 A"  109 A'  110 A'  111 A'   64 A"  112 A'   65 A"  113 A'                 
  1.852   1.861   1.878   1.888   1.920   1.923   1.956   2.007
114 A'   66 A"  115 A'   67 A"   68 A"  116 A'  117 A'   69 A"                 
  2.009   2.044   2.055   2.060   2.072   2.081   2.127   2.157
118 A'  119 A'   70 A"  120 A'  121 A'  122 A'  123 A'   71 A"                 
  2.185   2.199   2.201   2.229   2.246   2.280   2.281   2.325
124 A'  125 A'   72 A"  126 A'   73 A"   74 A"  127 A'  128 A'                 
  2.325   2.345   2.353   2.388   2.403   2.548   2.560   2.618
 75 A"  129 A'   76 A"  130 A'   77 A"  131 A'   78 A"  132 A'                 
  2.719   2.768   2.773   2.821   2.837   2.903   2.920   2.957
133 A'  134 A'  135 A'  136 A'   79 A"   80 A"  137 A'  138 A'                 
  3.142   3.162   3.175   3.402   3.436   3.440   3.592   3.594
 81 A"  139 A'  140 A'  141 A'   82 A"  142 A'  143 A'   83 A"                 
  3.608   3.634   3.657   3.683   3.687   3.784   3.823   3.831
144 A'   84 A"  145 A'   85 A"  146 A'  147 A'   86 A"  148 A'                 
  3.854   3.857   3.924   3.961   3.983   4.011   4.033   4.062
 87 A"  149 A'  150 A'   88 A"  151 A'   89 A"   90 A"  152 A'                 
  4.107   4.131   4.138   4.143   4.154   4.166   4.178   4.180
 91 A"   92 A"  153 A'  154 A'   93 A"  155 A'   94 A"  156 A'                 
  4.207   4.207   4.233   4.238   4.261   4.276   4.308   4.331
157 A'   95 A"   96 A"  158 A'  159 A'  160 A'   97 A"  161 A'                 
  4.334   4.385   4.397   4.404   4.418   4.512   4.514   4.518
 98 A"   99 A"  100 A"  162 A'  163 A'  164 A'  165 A'  101 A"                 
  4.556   4.569   4.571   4.593   4.600   4.642   4.653   4.713
102 A"  103 A"  166 A'  104 A"  167 A'  168 A'  169 A'  105 A"                 
  4.753   4.793   4.796   4.853   4.878   4.892   4.896   4.897
170 A'  106 A"  171 A'  172 A'  173 A'  107 A"  174 A'  108 A"                 
  4.933   4.965   5.030   5.042   5.063   5.076   5.124   5.180
175 A'  176 A'  109 A"  177 A'  110 A"  178 A'  179 A'  180 A'                 
  5.183   5.193   5.252   5.294   5.303   5.373   5.452   5.513
111 A"  112 A"  181 A'  182 A'  113 A"  183 A'  184 A'  185 A'                 
  5.542   5.578   5.624   5.634   5.643   5.955   6.009   6.128
114 A"  115 A"  116 A"  186 A'  187 A'  188 A'  189 A'  117 A"                 
  6.131   6.335   6.629   6.717   6.722   6.799   7.063   7.161
190 A'  191 A'  192 A'  118 A"  193 A'  119 A"  194 A'  120 A"                 
  7.302   7.324   7.374   7.393   7.542   7.713   7.920   7.964
121 A"  195 A'  122 A"  123 A"  196 A'  197 A'  198 A'  199 A'                 
  8.869   9.551  16.220  17.082
200 A'  201 A'  202 A'  203 A'                                                 
 --------------------------------------------------------------
 
          Ground-State Mulliken Net Atomic Charges

     Atom                 Charge (a.u.)
  ----------------------------------------
      1 O                    -0.336468
      2 H                     0.187293
      3 H                     0.136563
      4 Si                    1.515827
      5 H                    -0.324983
      6 H                    -0.324983
      7 H                    -0.364698
      8 C                    -1.299744
      9 H                     0.268213
     10 H                     0.274767
     11 H                     0.268213
  ----------------------------------------
  Sum of atomic charges =     0.000000

 -----------------------------------------------------------------
                    Cartesian Multipole Moments
 -----------------------------------------------------------------
    Charge (ESU x 10^10)
                 0.0000
    Dipole Moment (Debye)
         X       2.5676      Y       0.2513      Z       0.0000
       Tot       2.5799
    Quadrupole Moments (Debye-Ang)
        XX     -19.4858     XY       0.4250     YY     -28.1821
        XZ      -0.0000     YZ      -0.0000     ZZ     -31.2003
    Octopole Moments (Debye-Ang^2)
       XXX      57.7845    XXY       0.1003    XYY       9.9230
       YYY      -1.1232    XXZ      -0.0000    XYZ       0.0000
       YYZ      -0.0000    XZZ       1.6094    YZZ       2.3649
       ZZZ       0.0000
    Hexadecapole Moments (Debye-Ang^3)
      XXXX    -382.3388   XXXY      -0.9101   XXYY     -71.1815
      XYYY       3.6353   YYYY     -66.3415   XXXZ      -0.0000
      XXYZ      -0.0000   XYYZ       0.0000   YYYZ      -0.0000
      XXZZ     -94.2659   XYZZ      -1.7909   YYZZ     -22.4442
      XZZZ       0.0000   YZZZ      -0.0000   ZZZZ     -65.9145
 -----------------------------------------------------------------

 ---------------------------------------------------------------------
 *                     Fragment's binding energy                     *
 ---------------------------------------------------------------------
    Fragment           E(TOTAL)         E(CP-CORR)           DE(BSSE)
 ---------------------------------------------------------------------
           1     -76.3289853400     -76.3295460148       0.0005606748
           2    -330.6465808416    -330.6471287099       0.0005478683
     Complex    -406.9692670169
 ---------------------------------------------------------------------
  DE, kJ/mol      16.5386532152      19.4491676567
 ---------------------------------------------------------------------

Archival summary:
1\1\gm4.localdomain\SP\MP2\BasisUnspecified\i1118\xuedong\WedJul1011:15:452019WedJul1011:15:452019\0\\#,MP2,BasisUnspecified,\\0,1\Si\H,1,1.47879\H,1,1.47879,2,109.587\H,1,1.48002,2,109.493,3,-120.111,0\C,1,1.88356,2,109.477,3,120.081,0\H,5,1.08891,1,110.973,2,179.949,0\H,5,1.08891,1,110.973,2,59.9017,0\H,5,1.08894,1,110.915,2,-60.0744,0\O,4,2.3476,1,76.4436,2,60.0845,0\H,9,0.959455,4,171.389,1,0,0\H,9,0.959524,4,84.5567,1,180,0\\HF=-406.369768\MP2=-406.969267\\@

 Total job time:  414.28s(wall), 812.40s(cpu) 
 Wed Jul 10 11:15:45 2019

        *************************************************************
        *                                                           *
        *  Thank you very much for using Q-Chem.  Have a nice day.  *
        *                                                           *
        *************************************************************


