
Running Job 1 of 3 ../qm_inp/SiH3CH3_SiH3CH3_con1.150.qcinp
qchem ../qm_inp/SiH3CH3_SiH3CH3_con1.150.qcinp_33694.0 /scratch/xuedong/qchem33694/ 1
/home/qwang/software/qchem5.1.2/exe/qcprog.exe_s ../qm_inp/SiH3CH3_SiH3CH3_con1.150.qcinp_33694.0 /scratch/xuedong/qchem33694/
Check license passed

                  Welcome to Q-Chem
     A Quantum Leap Into The Future Of Chemistry


 Q-Chem 5.1, Q-Chem, Inc., Pleasanton, CA (2018)

 Yihan Shao,  Zhengting Gan,  E. Epifanovsky,  A. T. B. Gilbert,  M. Wormit,  
 J. Kussmann,  A. W. Lange,  A. Behn,  Jia Deng,  Xintian Feng,  D. Ghosh,  
 M. Goldey,  P. R. Horn,  L. D. Jacobson,  I. Kaliman,  T. Kus,  A. Landau,  
 Jie Liu,  E. I. Proynov,  R. M. Richard,  R. P. Steele,  E. J. Sundstrom,  
 H. L. Woodcock III,  P. M. Zimmerman,  D. Zuev,  B. Albrecht,  E. Alguire,  
 S. A. Baeppler,  D. Barton,  Z. Benda,  Y. A. Bernard,  E. J. Berquist,  
 K. B. Bravaya,  H. Burton,  D. Casanova,  Chun-Min Chang,  Yunqing Chen,  
 A. Chien,  K. D. Closser,  M. P. Coons,  S. Coriani,  S. Dasgupta,  
 A. L. Dempwolff,  M. Diedenhofen,  Hainam Do,  R. G. Edgar,  Po-Tung Fang,  
 S. Faraji,  S. Fatehi,  Qingguo Feng,  K. D. Fenk,  J. Fosso-Tande,  
 J. Gayvert,  Qinghui Ge,  A. Ghysels,  G. Gidofalvi,  J. Gomes,  
 J. Gonthier,  A. Gunina,  D. Hait,  M. W. D. Hanson-Heine,  
 P. H. P. Harbach,  A. W. Hauser,  J. E. Herr,  E. G. Hohenstein,  
 Z. C. Holden,  Kerwin Hui,  B. C. Huynh,  T.-C. Jagau,  Hyunjun Ji,  
 B. Kaduk,  K. Khistyaev,  Jaehoon Kim,  P. Klunzinger,  K. Koh,  
 D. Kosenkov,  L. Koulias,  T. Kowalczyk,  C. M. Krauter,  A. Kunitsa,  
 Ka Un Lao,  A. Laurent,  K. V. Lawler,  Joonho Lee,  D. Lefrancois,  
 S. Lehtola,  D. S. Levine,  Yi-Pei Li,  You-Sheng Lin,  Fenglai Liu,  
 E. Livshits,  A. Luenser,  P. Manohar,  E. Mansoor,  S. F. Manzer,  
 Shan-Ping Mao,  Yuezhi Mao,  N. Mardirossian,  A. V. Marenich,  
 T. Markovich,  L. A. Martinez-Martinez,  S. A. Maurer,  N. J. Mayhall,  
 S. C. McKenzie,  J.-M. Mewes,  A. F. Morrison,  J. W. Mullinax,  K. Nanda,  
 T. S. Nguyen-Beck,  R. Olivares-Amaya,  J. A. Parkhill,  T. M. Perrine,  
 F. Plasser,  P. Pokhilko,  S. Prager,  A. Prociuk,  E. Ramos,  D. R. Rehn,  
 F. Rob,  M. Schneider,  N. Sergueev,  S. M. Sharada,  S. Sharma,  
 D. W. Small,  T. Stauch,  T. Stein,  Yu-Chuan Su,  A. J. W. Thom,  
 A. Tkatchenko,  T. Tsuchimochi,  N. M. Tubman,  L. Vogt,  M. L. Vidal,  
 O. Vydrov,  M. A. Watson,  J. Wenzel,  M. de Wergifosse,  T. A. Wesolowski,  
 A. White,  J. Witte,  A. Yamada,  Jun Yang,  K. Yao,  S. Yeganeh,  
 S. R. Yost,  Zhi-Qiang You,  A. Zech,  Igor Ying Zhang,  Xing Zhang,  
 Yan Zhao,  Ying Zhu,  B. R. Brooks,  G. K. L. Chan,  C. J. Cramer,  
 M. S. Gordon,  W. J. Hehre,  A. Klamt,  M. W. Schmidt,  C. D. Sherrill,  
 D. G. Truhlar,  A. Aspuru-Guzik,  R. Baer,  A. T. Bell,  N. A. Besley,  
 Jeng-Da Chai,  A. E. DePrince, III,  R. A. DiStasio Jr.,  A. Dreuw,  
 B. D. Dunietz,  T. R. Furlani,  Chao-Ping Hsu,  Yousung Jung,  Jing Kong,  
 D. S. Lambrecht,  WanZhen Liang,  C. Ochsenfeld,  V. A. Rassolov,  
 L. V. Slipchenko,  J. E. Subotnik,  T. Van Voorhis,  J. M. Herbert,  
 A. I. Krylov,  P. M. W. Gill,  M. Head-Gordon

 Contributors to earlier versions of Q-Chem not listed above: 
 R. D. Adamson,  B. Austin,  J. Baker,  G. J. O. Beran,  K. Brandhorst,  
 S. T. Brown,  E. F. C. Byrd,  A. K. Chakraborty,  C.-L. Cheng,  
 Siu Hung Chien,  D. M. Chipman,  D. L. Crittenden,  H. Dachsel,  
 R. J. Doerksen,  A. D. Dutoi,  L. Fusti-Molnar,  W. A. Goddard III,  
 A. Golubeva-Zadorozhnaya,  S. R. Gwaltney,  G. Hawkins,  A. Heyden,  
 S. Hirata,  G. Kedziora,  F. J. Keil,  C. Kelley,  Jihan Kim,  R. A. King,  
 R. Z. Khaliullin,  P. P. Korambath,  W. Kurlancheek,  A. M. Lee,  M. S. Lee,  
 S. V. Levchenko,  Ching Yeh Lin,  D. Liotard,  R. C. Lochan,  I. Lotan,  
 P. E. Maslen,  N. Nair,  D. P. O'Neill,  D. Neuhauser,  E. Neuscamman,  
 C. M. Oana,  R. Olson,  B. Peters,  R. Peverati,  P. A. Pieniazek,  
 Y. M. Rhee,  J. Ritchie,  M. A. Rohrdanz,  E. Rosta,  N. J. Russ,  
 H. F. Schaefer III,  N. E. Schultz,  N. Shenvi,  A. C. Simmonett,  A. Sodt,  
 D. Stuck,  K. S. Thanthiriwatte,  V. Vanovschi,  Tao Wang,  A. Warshel,  
 C. F. Williams,  Q. Wu,  X. Xu,  W. Zhang

 Please cite Q-Chem as follows:
 Y. Shao et al., Mol. Phys. 113, 184-215 (2015)
 DOI: 10.1080/00268976.2014.952696

 Q-Chem 5.1.2 for Intel X86 EM64T Linux

 Parts of Q-Chem use Armadillo 8.300.2 (Tropical Shenanigans).
 http://arma.sourceforge.net/

 Q-Chem begins on Wed Jul  3 16:22:29 2019  

Host: 
0

     Scratch files written to /scratch/xuedong/qchem33694//
 Dec218 |scratch|qcdevops|jenkins|workspace|build_RNUM 6581   
Processing $rem in /home/qwang/software/qchem5.1.2/config/preferences.
 MEM_TOTAL  4000 
Core orbitals will be frozen
Input Ideriv = 1
Curr. Ideriv = -1
Max.  Ideriv = 1

Checking the input file for inconsistencies... 	...done.

--------------------------------------------------------------
User input:
--------------------------------------------------------------
$molecule
0 1
Si     2.206519773     0.028225580     0.000619108
H     1.719687849     0.752119435    -1.196193955
H     1.720552923     0.738931435     1.205678115
H     1.620645936    -1.331752276    -0.006589851
C     4.082202750    -0.060760672    -0.000507565
H     4.444822828    -0.592187257     0.877602138
H     4.444224422    -0.582384122    -0.884721181
H     4.516939396     0.937214734     0.004896367
Si    -5.115780393    -0.011744649     0.002086029
H    -5.654190396     0.670315279    -1.197186414
H    -5.643833156     0.673257147     1.204279915
H    -5.610601158    -1.407624492     0.005921390
C    -3.238067136     0.022769093    -0.006038212
H    -2.838811710    -0.478021404     0.874349920
H    -2.846313508    -0.480390488    -0.888442830
H    -2.871100467     1.047854880    -0.008998452
$end

$rem
BASIS = aug-cc-pVTZ
JOB_TYPE  =  SP
METHOD  =  MP2
SCF_MAX_CYCLES  =  200
$end

--------------------------------------------------------------
 ----------------------------------------------------------------
             Standard Nuclear Orientation (Angstroms)
    I     Atom           X                Y                Z
 ----------------------------------------------------------------
    1      Si     -3.0269245223    -0.0324840845     0.0016482415
    2      H      -2.5393373011    -0.7821602444    -1.1788743125
    3      H      -2.5401361233    -0.7158041605     1.2221172211
    4      H      -2.4425464022     1.3276435663    -0.0356998135
    5      C      -4.9027042315     0.0543951936    -0.0013394210
    6      H      -5.2658788035     0.6047323911     0.8648114816
    7      H      -5.2653288691     0.5559182794    -0.8968629550
    8      H      -5.3363432877    -0.9436928991     0.0261813548
    9      Si      4.2953273219     0.0155513011     0.0018056305
   10      H       4.8344465171    -0.6922990037    -1.1821048005
   11      H       4.8241732537    -0.6420882330     1.2188387213
   12      H       4.7886133267     1.4117166072    -0.0252903256
   13      C       2.4176528709    -0.0211962150    -0.0054437498
   14      H       2.0178767301     0.4985226218     0.8636653618
   15      H       2.0253166548     0.4618749290    -0.8987482568
   16      H       2.0518132739    -1.0464987574     0.0143111408
 ----------------------------------------------------------------
 Molecular Point Group                 C1    NOp =  1
 Largest Abelian Subgroup              C1    NOp =  1
 Nuclear Repulsion Energy =   176.2054666449 hartrees
 There are       26 alpha and       26 beta electrons
 Requested basis set is aug-cc-pVTZ
 There are 168 shells and 468 basis functions

 Total QAlloc Memory Limit   4000 MB
 Mega-Array Size       188 MB
 MEM_STATIC part       192 MB
 A cutoff of  1.0D-08 yielded   9861 shell pairs
 There are     71601 function pairs (     90425 Cartesian)
 
 -------------------------------------------------------
 OpenMP Integral Computing Module                       
 Release: version 1.0, May 2013, Q-Chem Inc. Pittsburgh 
 -------------------------------------------------------
 Integral Job Info:
 Integral job number is                      11
 Integral operator is                         1
 short-range coefficients                     0
 long-range coefficients              100000000
 Omega coefficients                           0
 if combine SR and LR in K                    0
 Integral screening is                        0
 Integral computing path is                   2
 max size of driver memory is            800000
 size of driver memory is                776718
 size of scratch memory is             29531563
 max col of scratch BK array              10000
 max len of scratch array in speh3          662
 max len of scratch index in speh4           32
 max int batch size is                      520
 min int batch size is                       52
 fixed nKL is                                31
 max L of basis functions is                  3
 order of int derivative is                   0
 number of shells is                        168
 number of basis is                         528
 number of cartesian basis is               528
 number of contracted shell pairs          9861
 number of primitive shell pairs          27242
 maxK2 (contraction) of shell pair          169
 max number of K2 of shell pair               1
 max number of CS2 of shell pair           1907
 max number of PS2 of shell pair           2639
 mem total for path MDJ                  733948
 -------------------------------------------------------
 Smallest overlap matrix eigenvalue = 1.25E-05

 Q-Chem warning in module stvman/mkSTV.C, line 306:

 Overlap eigenvalue is smaller than square root of threshold
 Use THRESH >= 12 to get rid of this warning


 Scale SEOQF with 1.000000e-02/1.000000e-01/1.000000e-01

 Standard Electronic Orientation quadrupole field applied
 Nucleus-field energy     =     0.0000000024 hartrees
 Guess from superposition of atomic densities
 Warning:  Energy on first SCF cycle will be non-variational
 SAD guess density has 52.000000 electrons

 -----------------------------------------------------------------------
  General SCF calculation program by
  Eric Jon Sundstrom, Paul Horn, Yuezhi Mao, Dmitri Zuev, Alec White,
  David Stuck, Shaama M.S., Shane Yost, Joonho Lee, David Small,
  Daniel Levine, Susi Lehtola, Hugh Burton, Evgeny Epifanovsky
 -----------------------------------------------------------------------
 Hartree-Fock
 using 6 threads for integral computing
 -------------------------------------------------------
 OpenMP Integral computing Module                
 Release: version 1.0, May 2013, Q-Chem Inc. Pittsburgh 
 -------------------------------------------------------
 A restricted SCF calculation will be
 performed using DIIS
 SCF converges when DIIS error is below 1.0e-05
 ---------------------------------------
  Cycle       Energy         DIIS error
 ---------------------------------------
    1    -660.9455052099      1.47e-02  
    2    -660.5901616697      1.11e-03  
    3    -660.6406763010      3.29e-04  
    4    -660.6456175331      1.34e-04  
    5    -660.6463478764      1.67e-05  
    6    -660.6463701209      3.53e-06  Convergence criterion met
 ---------------------------------------
 SCF time:   CPU 385.64s  wall 64.00s 
 SCF   energy in the final basis set =     -660.6463701209
 Total energy in the final basis set =     -660.6463701209
 
 Components of the MP2 correlation energy:
        aaaa  correlation energy =        -0.0557681672 au
        abab  correlation energy =        -0.5360221085 au
        bbbb  correlation energy =        -0.0557681672 au
        non-Brillouin singles    =        -0.0000000000 au

 Total  MP2   correlation energy =                    -0.64755844 au
        MP2         total energy =                  -661.29392856 au
 
 --------------------------------------------------------------
 
                    Orbital Energies (a.u.)
 --------------------------------------------------------------
 
 Alpha MOs
 -- Occupied --
-68.767 -68.764 -11.209 -11.207  -6.116  -6.113  -4.222  -4.222
 -4.221  -4.220  -4.220  -4.219  -0.951  -0.948  -0.700  -0.698
 -0.566  -0.566  -0.564  -0.564  -0.470  -0.470  -0.467  -0.467
 -0.456  -0.453
 -- Virtual --
  0.028   0.034   0.041   0.041   0.042   0.051   0.051   0.059
  0.068   0.068   0.072   0.073   0.079   0.080   0.081   0.102
  0.102   0.113   0.121   0.132   0.135   0.136   0.136   0.143
  0.143   0.151   0.158   0.160   0.160   0.166   0.166   0.178
  0.179   0.198   0.206   0.210   0.210   0.214   0.224   0.225
  0.231   0.232   0.243   0.258   0.259   0.262   0.270   0.270
  0.282   0.289   0.298   0.317   0.317   0.320   0.321   0.323
  0.330   0.333   0.334   0.338   0.341   0.341   0.352   0.353
  0.364   0.364   0.365   0.371   0.371   0.374   0.387   0.387
  0.391   0.396   0.400   0.401   0.413   0.426   0.437   0.445
  0.448   0.449   0.449   0.452   0.463   0.468   0.472   0.474
  0.484   0.484   0.496   0.497   0.498   0.498   0.513   0.516
  0.523   0.539   0.549   0.580   0.600   0.603   0.603   0.614
  0.615   0.636   0.641   0.649   0.649   0.651   0.659   0.661
  0.667   0.667   0.681   0.687   0.687   0.690   0.690   0.696
  0.698   0.710   0.713   0.727   0.728   0.732   0.747   0.790
  0.809   0.825   0.825   0.837   0.838   0.851   0.872   0.873
  0.878   0.884   0.885   0.894   0.902   0.912   0.935   0.950
  0.954   0.957   0.961   0.962   0.964   0.966   0.973   0.974
  0.991   0.994   1.005   1.015   1.037   1.037   1.045   1.048
  1.048   1.069   1.072   1.074   1.079   1.080   1.092   1.094
  1.116   1.118   1.123   1.148   1.148   1.151   1.152   1.153
  1.156   1.157   1.162   1.165   1.168   1.169   1.181   1.194
  1.195   1.209   1.212   1.213   1.254   1.257   1.268   1.270
  1.270   1.284   1.286   1.288   1.313   1.313   1.330   1.330
  1.335   1.343   1.346   1.355   1.357   1.365   1.386   1.386
  1.392   1.393   1.422   1.429   1.431   1.432   1.432   1.434
  1.437   1.437   1.445   1.447   1.448   1.459   1.460   1.493
  1.521   1.521   1.528   1.529   1.536   1.580   1.588   1.617
  1.628   1.633   1.633   1.650   1.650   1.653   1.654   1.660
  1.691   1.691   1.701   1.702   1.734   1.783   1.795   1.832
  1.833   1.835   1.835   1.849   1.851   1.852   1.894   1.894
  1.901   1.902   1.997   1.998   2.000   2.013   2.014   2.018
  2.019   2.024   2.037   2.038   2.072   2.088   2.105   2.123
  2.124   2.134   2.136   2.137   2.159   2.160   2.164   2.165
  2.216   2.220   2.278   2.278   2.280   2.281   2.311   2.327
  2.341   2.342   2.365   2.366   2.743   2.766   3.088   3.089
  3.091   3.092   3.097   3.106   3.303   3.322   3.411   3.411
  3.418   3.418   3.437   3.475   3.559   3.559   3.565   3.565
  3.612   3.614   3.637   3.654   3.654   3.657   3.665   3.665
  3.707   3.707   3.718   3.720   3.824   3.824   3.831   3.831
  3.941   3.941   3.948   3.948   3.992   3.994   4.008   4.030
  4.030   4.031   4.035   4.036   4.084   4.088   4.101   4.110
  4.111   4.111   4.119   4.119   4.132   4.133   4.136   4.137
  4.159   4.167   4.203   4.204   4.206   4.208   4.209   4.215
  4.215   4.219   4.219   4.223   4.330   4.331   4.335   4.336
  4.342   4.343   4.363   4.364   4.498   4.498   4.502   4.503
  4.506   4.514   4.530   4.532   4.580   4.592   4.592   4.595
  4.600   4.600   4.757   4.757   4.762   4.763   4.787   4.800
  4.800   4.801   4.805   4.805   4.839   4.840   4.848   4.849
  4.887   4.940   5.003   5.005   5.018   5.019   5.022   5.023
  5.056   5.062   5.155   5.156   5.162   5.163   5.235   5.235
  5.238   5.238   5.322   5.339   5.562   5.566   5.600   5.600
  5.601   5.601   5.619   5.631   5.931   5.946   6.102   6.102
  6.110   6.112   6.691   6.691   6.697   6.697   8.970   9.070
 17.014  17.279
 --------------------------------------------------------------
 
          Ground-State Mulliken Net Atomic Charges

     Atom                 Charge (a.u.)
  ----------------------------------------
      1 Si                    1.313962
      2 H                    -0.366689
      3 H                    -0.366588
      4 H                    -0.368704
      5 C                    -1.058808
      6 H                     0.280720
      7 H                     0.280322
      8 H                     0.280167
      9 Si                    1.381118
     10 H                    -0.398327
     11 H                    -0.397899
     12 H                    -0.397993
     13 C                    -1.058049
     14 H                     0.292642
     15 H                     0.292168
     16 H                     0.291945
  ----------------------------------------
  Sum of atomic charges =    -0.000014

 -----------------------------------------------------------------
                    Cartesian Multipole Moments
 -----------------------------------------------------------------
    Charge (ESU x 10^10)
                -0.0001
    Dipole Moment (Debye)
         X      -1.4478      Y       0.0200      Z      -0.0041
       Tot       1.4479
    Quadrupole Moments (Debye-Ang)
        XX     -47.4117     XY      -0.1651     YY     -46.5605
        XZ      -0.0075     YZ       0.0000     ZZ     -46.5617
    Octopole Moments (Debye-Ang^2)
       XXX     -62.2293    XXY      -0.1034    XYY      -6.6336
       YYY      -3.6012    XXZ      -0.0268    XYZ      -0.0059
       YYZ       0.2641    XZZ      -6.5514    YZZ       3.9603
       ZZZ      -0.3371
    Hexadecapole Moments (Debye-Ang^3)
      XXXX   -4162.4826   XXXY       1.3992   XXYY    -701.3669
      XYYY      -2.0828   YYYY    -114.5185   XXXZ      -0.0322
      XXYZ      -0.0954   XYYZ      -0.1941   YYYZ       0.0024
      XXZZ    -703.1005   XYZZ      -1.1286   YYZZ     -38.1063
      XZZZ       0.0877   YZZZ      -0.0031   ZZZZ    -114.1958
 -----------------------------------------------------------------
Archival summary:
1\1\mm2.localdomain\SP\MP2\BasisUnspecified\i2212\xuedong\WedJul316:28:532019WedJul316:28:532019\0\\#,MP2,BasisUnspecified,\\0,1\Si\H,1,1.48082\H,1,1.48101,2,108.355\H,1,1.48102,2,108.352,3,117.378,0\C,1,1.87779,2,110.59,3,-121.313,0\H,5,1.08857,1,110.822,2,-179.993,0\H,5,1.08857,1,110.817,2,-59.9922,0\H,5,1.08857,1,110.817,2,60.0054,0\H,2,4.62511,1,102.182,3,-69.8429,0\C,9,1.08871,2,106.527,1,69.1554,0\H,10,1.0887,9,108.112,2,42.1945,0\H,10,1.08879,9,108.16,2,-74.7005,0\Si,10,1.87805,9,110.776,2,163.75,0\H,13,1.48099,10,110.579,9,60.0049,0\H,13,1.48099,10,110.572,9,-59.9939,0\H,13,1.48099,10,110.58,9,-179.993,0\\HF=-660.64637\MP2=-661.293929\\@

 Total job time:  383.64s(wall), 2268.86s(cpu) 
 Wed Jul  3 16:28:53 2019

        *************************************************************
        *                                                           *
        *  Thank you very much for using Q-Chem.  Have a nice day.  *
        *                                                           *
        *************************************************************



Running Job 2 of 3 ../qm_inp/SiH3CH3_SiH3CH3_con1.150.qcinp
qchem ../qm_inp/SiH3CH3_SiH3CH3_con1.150.qcinp_33694.1 /scratch/xuedong/qchem33694/ 1
/home/qwang/software/qchem5.1.2/exe/qcprog.exe_s ../qm_inp/SiH3CH3_SiH3CH3_con1.150.qcinp_33694.1 /scratch/xuedong/qchem33694/
Check license passed

                  Welcome to Q-Chem
     A Quantum Leap Into The Future Of Chemistry


 Q-Chem 5.1, Q-Chem, Inc., Pleasanton, CA (2018)

 Yihan Shao,  Zhengting Gan,  E. Epifanovsky,  A. T. B. Gilbert,  M. Wormit,  
 J. Kussmann,  A. W. Lange,  A. Behn,  Jia Deng,  Xintian Feng,  D. Ghosh,  
 M. Goldey,  P. R. Horn,  L. D. Jacobson,  I. Kaliman,  T. Kus,  A. Landau,  
 Jie Liu,  E. I. Proynov,  R. M. Richard,  R. P. Steele,  E. J. Sundstrom,  
 H. L. Woodcock III,  P. M. Zimmerman,  D. Zuev,  B. Albrecht,  E. Alguire,  
 S. A. Baeppler,  D. Barton,  Z. Benda,  Y. A. Bernard,  E. J. Berquist,  
 K. B. Bravaya,  H. Burton,  D. Casanova,  Chun-Min Chang,  Yunqing Chen,  
 A. Chien,  K. D. Closser,  M. P. Coons,  S. Coriani,  S. Dasgupta,  
 A. L. Dempwolff,  M. Diedenhofen,  Hainam Do,  R. G. Edgar,  Po-Tung Fang,  
 S. Faraji,  S. Fatehi,  Qingguo Feng,  K. D. Fenk,  J. Fosso-Tande,  
 J. Gayvert,  Qinghui Ge,  A. Ghysels,  G. Gidofalvi,  J. Gomes,  
 J. Gonthier,  A. Gunina,  D. Hait,  M. W. D. Hanson-Heine,  
 P. H. P. Harbach,  A. W. Hauser,  J. E. Herr,  E. G. Hohenstein,  
 Z. C. Holden,  Kerwin Hui,  B. C. Huynh,  T.-C. Jagau,  Hyunjun Ji,  
 B. Kaduk,  K. Khistyaev,  Jaehoon Kim,  P. Klunzinger,  K. Koh,  
 D. Kosenkov,  L. Koulias,  T. Kowalczyk,  C. M. Krauter,  A. Kunitsa,  
 Ka Un Lao,  A. Laurent,  K. V. Lawler,  Joonho Lee,  D. Lefrancois,  
 S. Lehtola,  D. S. Levine,  Yi-Pei Li,  You-Sheng Lin,  Fenglai Liu,  
 E. Livshits,  A. Luenser,  P. Manohar,  E. Mansoor,  S. F. Manzer,  
 Shan-Ping Mao,  Yuezhi Mao,  N. Mardirossian,  A. V. Marenich,  
 T. Markovich,  L. A. Martinez-Martinez,  S. A. Maurer,  N. J. Mayhall,  
 S. C. McKenzie,  J.-M. Mewes,  A. F. Morrison,  J. W. Mullinax,  K. Nanda,  
 T. S. Nguyen-Beck,  R. Olivares-Amaya,  J. A. Parkhill,  T. M. Perrine,  
 F. Plasser,  P. Pokhilko,  S. Prager,  A. Prociuk,  E. Ramos,  D. R. Rehn,  
 F. Rob,  M. Schneider,  N. Sergueev,  S. M. Sharada,  S. Sharma,  
 D. W. Small,  T. Stauch,  T. Stein,  Yu-Chuan Su,  A. J. W. Thom,  
 A. Tkatchenko,  T. Tsuchimochi,  N. M. Tubman,  L. Vogt,  M. L. Vidal,  
 O. Vydrov,  M. A. Watson,  J. Wenzel,  M. de Wergifosse,  T. A. Wesolowski,  
 A. White,  J. Witte,  A. Yamada,  Jun Yang,  K. Yao,  S. Yeganeh,  
 S. R. Yost,  Zhi-Qiang You,  A. Zech,  Igor Ying Zhang,  Xing Zhang,  
 Yan Zhao,  Ying Zhu,  B. R. Brooks,  G. K. L. Chan,  C. J. Cramer,  
 M. S. Gordon,  W. J. Hehre,  A. Klamt,  M. W. Schmidt,  C. D. Sherrill,  
 D. G. Truhlar,  A. Aspuru-Guzik,  R. Baer,  A. T. Bell,  N. A. Besley,  
 Jeng-Da Chai,  A. E. DePrince, III,  R. A. DiStasio Jr.,  A. Dreuw,  
 B. D. Dunietz,  T. R. Furlani,  Chao-Ping Hsu,  Yousung Jung,  Jing Kong,  
 D. S. Lambrecht,  WanZhen Liang,  C. Ochsenfeld,  V. A. Rassolov,  
 L. V. Slipchenko,  J. E. Subotnik,  T. Van Voorhis,  J. M. Herbert,  
 A. I. Krylov,  P. M. W. Gill,  M. Head-Gordon

 Contributors to earlier versions of Q-Chem not listed above: 
 R. D. Adamson,  B. Austin,  J. Baker,  G. J. O. Beran,  K. Brandhorst,  
 S. T. Brown,  E. F. C. Byrd,  A. K. Chakraborty,  C.-L. Cheng,  
 Siu Hung Chien,  D. M. Chipman,  D. L. Crittenden,  H. Dachsel,  
 R. J. Doerksen,  A. D. Dutoi,  L. Fusti-Molnar,  W. A. Goddard III,  
 A. Golubeva-Zadorozhnaya,  S. R. Gwaltney,  G. Hawkins,  A. Heyden,  
 S. Hirata,  G. Kedziora,  F. J. Keil,  C. Kelley,  Jihan Kim,  R. A. King,  
 R. Z. Khaliullin,  P. P. Korambath,  W. Kurlancheek,  A. M. Lee,  M. S. Lee,  
 S. V. Levchenko,  Ching Yeh Lin,  D. Liotard,  R. C. Lochan,  I. Lotan,  
 P. E. Maslen,  N. Nair,  D. P. O'Neill,  D. Neuhauser,  E. Neuscamman,  
 C. M. Oana,  R. Olson,  B. Peters,  R. Peverati,  P. A. Pieniazek,  
 Y. M. Rhee,  J. Ritchie,  M. A. Rohrdanz,  E. Rosta,  N. J. Russ,  
 H. F. Schaefer III,  N. E. Schultz,  N. Shenvi,  A. C. Simmonett,  A. Sodt,  
 D. Stuck,  K. S. Thanthiriwatte,  V. Vanovschi,  Tao Wang,  A. Warshel,  
 C. F. Williams,  Q. Wu,  X. Xu,  W. Zhang

 Please cite Q-Chem as follows:
 Y. Shao et al., Mol. Phys. 113, 184-215 (2015)
 DOI: 10.1080/00268976.2014.952696

 Q-Chem 5.1.2 for Intel X86 EM64T Linux

 Parts of Q-Chem use Armadillo 8.300.2 (Tropical Shenanigans).
 http://arma.sourceforge.net/

 Q-Chem begins on Wed Jul  3 16:28:53 2019  

Host: 
0

     Scratch files written to /scratch/xuedong/qchem33694//
 Dec218 |scratch|qcdevops|jenkins|workspace|build_RNUM 6581   
Processing $rem in /home/qwang/software/qchem5.1.2/config/preferences.
 MEM_TOTAL  4000 
Core orbitals will be frozen
Input Ideriv = 1
Curr. Ideriv = -1
Max.  Ideriv = 1

Checking the input file for inconsistencies... 	...done.

--------------------------------------------------------------
User input:
--------------------------------------------------------------

$molecule
0 1
Si     2.206519773     0.028225580     0.000619108
H     1.719687849     0.752119435    -1.196193955
H     1.720552923     0.738931435     1.205678115
H     1.620645936    -1.331752276    -0.006589851
C     4.082202750    -0.060760672    -0.000507565
H     4.444822828    -0.592187257     0.877602138
H     4.444224422    -0.582384122    -0.884721181
H     4.516939396     0.937214734     0.004896367
@Si    -5.115780393    -0.011744649     0.002086029
@H    -5.654190396     0.670315279    -1.197186414
@H    -5.643833156     0.673257147     1.204279915
@H    -5.610601158    -1.407624492     0.005921390
@C    -3.238067136     0.022769093    -0.006038212
@H    -2.838811710    -0.478021404     0.874349920
@H    -2.846313508    -0.480390488    -0.888442830
@H    -2.871100467     1.047854880    -0.008998452
$end

$rem
BASIS = aug-cc-pVTZ
JOB_TYPE  =  SP
METHOD  =  MP2
SCF_MAX_CYCLES  =  200
$end

--------------------------------------------------------------
 ----------------------------------------------------------------
             Standard Nuclear Orientation (Angstroms)
    I     Atom           X                Y                Z
 ----------------------------------------------------------------
    1      Si      2.2065197730     0.0282255800     0.0006191080
    2      H       1.7196878490     0.7521194350    -1.1961939550
    3      H       1.7205529230     0.7389314350     1.2056781150
    4      H       1.6206459360    -1.3317522760    -0.0065898510
    5      C       4.0822027500    -0.0607606720    -0.0005075650
    6      H       4.4448228280    -0.5921872570     0.8776021380
    7      H       4.4442244220    -0.5823841220    -0.8847211810
    8      H       4.5169393960     0.9372147340     0.0048963670
    9      GH     -5.1157803930    -0.0117446490     0.0020860290
   10      GH     -5.6541903960     0.6703152790    -1.1971864140
   11      GH     -5.6438331560     0.6732571470     1.2042799150
   12      GH     -5.6106011580    -1.4076244920     0.0059213900
   13      GH     -3.2380671360     0.0227690930    -0.0060382120
   14      GH     -2.8388117100    -0.4780214040     0.8743499200
   15      GH     -2.8463135080    -0.4803904880    -0.8884428300
   16      GH     -2.8711004670     1.0478548800    -0.0089984520
 ----------------------------------------------------------------
 Nuclear Repulsion Energy =    62.8545562914 hartrees
 There are       13 alpha and       13 beta electrons
 Requested basis set is aug-cc-pVTZ
 There are 168 shells and 468 basis functions

 Total QAlloc Memory Limit   4000 MB
 Mega-Array Size       188 MB
 MEM_STATIC part       192 MB
 A cutoff of  1.0D-08 yielded   9861 shell pairs
 There are     71601 function pairs (     90425 Cartesian)
 
 -------------------------------------------------------
 OpenMP Integral Computing Module                       
 Release: version 1.0, May 2013, Q-Chem Inc. Pittsburgh 
 -------------------------------------------------------
 Integral Job Info:
 Integral job number is                      11
 Integral operator is                         1
 short-range coefficients                     0
 long-range coefficients              100000000
 Omega coefficients                           0
 if combine SR and LR in K                    0
 Integral screening is                        0
 Integral computing path is                   2
 max size of driver memory is            800000
 size of driver memory is                776718
 size of scratch memory is             29531563
 max col of scratch BK array              10000
 max len of scratch array in speh3          662
 max len of scratch index in speh4           32
 max int batch size is                      520
 min int batch size is                       52
 fixed nKL is                                31
 max L of basis functions is                  3
 order of int derivative is                   0
 number of shells is                        168
 number of basis is                         528
 number of cartesian basis is               528
 number of contracted shell pairs          9861
 number of primitive shell pairs          27242
 maxK2 (contraction) of shell pair          169
 max number of K2 of shell pair               1
 max number of CS2 of shell pair           1907
 max number of PS2 of shell pair           2639
 mem total for path MDJ                  733948
 -------------------------------------------------------
 Smallest overlap matrix eigenvalue = 1.25E-05

 Q-Chem warning in module stvman/mkSTV.C, line 306:

 Overlap eigenvalue is smaller than square root of threshold
 Use THRESH >= 12 to get rid of this warning


 Scale SEOQF with 1.000000e-02/1.000000e-01/1.000000e-01

 Standard Electronic Orientation quadrupole field applied
 Nucleus-field energy     =     0.0000000007 hartrees
 Guess from superposition of atomic densities
 Warning:  Energy on first SCF cycle will be non-variational
 SAD guess density has 26.000000 electrons

 -----------------------------------------------------------------------
  General SCF calculation program by
  Eric Jon Sundstrom, Paul Horn, Yuezhi Mao, Dmitri Zuev, Alec White,
  David Stuck, Shaama M.S., Shane Yost, Joonho Lee, David Small,
  Daniel Levine, Susi Lehtola, Hugh Burton, Evgeny Epifanovsky
 -----------------------------------------------------------------------
 Hartree-Fock
 using 6 threads for integral computing
 -------------------------------------------------------
 OpenMP Integral computing Module                
 Release: version 1.0, May 2013, Q-Chem Inc. Pittsburgh 
 -------------------------------------------------------
 A restricted SCF calculation will be
 performed using DIIS
 SCF converges when DIIS error is below 1.0e-05
 ---------------------------------------
  Cycle       Energy         DIIS error
 ---------------------------------------
    1    -330.4729804249      1.04e-02  
    2    -330.2950645537      7.86e-04  
    3    -330.3203213026      2.33e-04  
    4    -330.3227931400      9.49e-05  
    5    -330.3231592475      1.18e-05  
    6    -330.3231703939      2.48e-06  Convergence criterion met
 ---------------------------------------
 SCF time:   CPU 341.47s  wall 57.00s 
 SCF   energy in the final basis set =     -330.3231703939
 Total energy in the final basis set =     -330.3231703939
 
 Components of the MP2 correlation energy:
        aaaa  correlation energy =        -0.0278501077 au
        abab  correlation energy =        -0.2679413776 au
        bbbb  correlation energy =        -0.0278501077 au
        non-Brillouin singles    =        -0.0000000000 au

 Total  MP2   correlation energy =                    -0.32364159 au
        MP2         total energy =                  -330.64681199 au
 
 --------------------------------------------------------------
 
                    Orbital Energies (a.u.)
 --------------------------------------------------------------
 
 Alpha MOs
 -- Occupied --
-68.766 -11.208  -6.115  -4.221  -4.221  -4.220  -0.950  -0.699
 -0.565  -0.565  -0.469  -0.469  -0.455
 -- Virtual --
  0.021   0.031   0.040   0.040   0.040   0.049   0.049   0.059
  0.067   0.067   0.072   0.073   0.077   0.082   0.083   0.089
  0.102   0.102   0.115   0.123   0.128   0.128   0.131   0.137
  0.138   0.143   0.158   0.163   0.164   0.176   0.177   0.180
  0.202   0.202   0.203   0.203   0.206   0.216   0.220   0.220
  0.237   0.238   0.249   0.259   0.263   0.264   0.277   0.282
  0.283   0.292   0.306   0.307   0.310   0.310   0.325   0.326
  0.326   0.330   0.337   0.338   0.352   0.353   0.354   0.360
  0.361   0.363   0.366   0.378   0.384   0.384   0.398   0.400
  0.402   0.414   0.421   0.423   0.428   0.430   0.430   0.450
  0.455   0.456   0.459   0.463   0.469   0.470   0.475   0.484
  0.484   0.495   0.500   0.500   0.521   0.524   0.528   0.546
  0.547   0.559   0.562   0.563   0.564   0.583   0.610   0.611
  0.620   0.642   0.646   0.654   0.655   0.659   0.674   0.675
  0.683   0.684   0.688   0.696   0.698   0.699   0.708   0.709
  0.711   0.760   0.761   0.766   0.792   0.804   0.805   0.819
  0.822   0.823   0.835   0.835   0.866   0.870   0.874   0.883
  0.884   0.897   0.928   0.929   0.930   0.953   0.956   0.961
  0.964   0.966   0.981   0.981   0.998   1.007   1.014   1.027
  1.029   1.039   1.041   1.050   1.068   1.071   1.071   1.088
  1.091   1.100   1.101   1.116   1.120   1.124   1.137   1.141
  1.143   1.153   1.154   1.158   1.159   1.163   1.166   1.169
  1.169   1.188   1.189   1.190   1.193   1.194   1.195   1.201
  1.208   1.208   1.226   1.232   1.232   1.271   1.273   1.274
  1.290   1.291   1.330   1.336   1.336   1.345   1.350   1.350
  1.352   1.361   1.384   1.387   1.387   1.393   1.394   1.403
  1.405   1.411   1.430   1.430   1.430   1.436   1.439   1.440
  1.455   1.456   1.487   1.487   1.488   1.524   1.525   1.534
  1.541   1.593   1.602   1.603   1.618   1.629   1.631   1.655
  1.656   1.658   1.690   1.691   1.692   1.693   1.701   1.758
  1.764   1.765   1.773   1.789   1.834   1.834   1.850   1.854
  1.865   1.866   1.888   1.894   1.895   1.913   1.913   1.942
  2.005   2.006   2.007   2.023   2.023   2.038   2.048   2.072
  2.072   2.086   2.119   2.124   2.124   2.129   2.144   2.144
  2.164   2.164   2.218   2.273   2.274   2.280   2.280   2.321
  2.332   2.342   2.343   2.373   2.376   2.414   2.463   2.463
  2.499   2.535   2.535   2.545   2.682   2.683   2.745   2.777
  2.777   2.783   2.994   2.994   3.091   3.091   3.100   3.155
  3.305   3.413   3.413   3.468   3.561   3.561   3.613   3.639
  3.657   3.657   3.713   3.714   3.759   3.760   3.827   3.827
  3.859   3.942   3.942   3.944   3.993   4.027   4.032   4.032
  4.082   4.085   4.099   4.110   4.111   4.112   4.125   4.125
  4.136   4.136   4.165   4.168   4.168   4.205   4.205   4.209
  4.216   4.217   4.246   4.271   4.271   4.336   4.338   4.341
  4.353   4.363   4.363   4.364   4.396   4.404   4.404   4.426
  4.475   4.475   4.501   4.502   4.512   4.531   4.535   4.545
  4.545   4.570   4.581   4.595   4.595   4.618   4.618   4.636
  4.655   4.655   4.722   4.723   4.759   4.760   4.795   4.804
  4.804   4.811   4.841   4.841   4.876   4.889   4.889   4.910
  4.910   4.920   5.004   5.019   5.020   5.052   5.063   5.156
  5.156   5.160   5.160   5.224   5.236   5.236   5.249   5.283
  5.284   5.328   5.348   5.348   5.349   5.349   5.460   5.460
  5.487   5.487   5.489   5.563   5.601   5.601   5.620   5.646
  5.647   5.746   5.937   6.057   6.103   6.103   6.138   6.139
  6.141   6.191   6.191   6.197   6.692   6.692   6.746   6.748
  7.074   7.467   7.803   7.804   8.152   8.152   9.001  10.317
 15.082  17.033  20.432  20.432  20.835  51.810 106.987
 --------------------------------------------------------------
 
          Ground-State Mulliken Net Atomic Charges

     Atom                 Charge (a.u.)
  ----------------------------------------
      1 Si                    1.311709
      2 H                    -0.365192
      3 H                    -0.365075
      4 H                    -0.367052
      5 C                    -1.058431
      6 H                     0.280730
      7 H                     0.280373
      8 H                     0.280246
      9 GH                   -0.000075
     10 GH                   -0.000069
     11 GH                   -0.000070
     12 GH                   -0.000089
     13 GH                   -0.001468
     14 GH                    0.001334
     15 GH                    0.001278
     16 GH                    0.001847
  ----------------------------------------
  Sum of atomic charges =    -0.000006

 -----------------------------------------------------------------
                    Cartesian Multipole Moments
 -----------------------------------------------------------------
    Charge (ESU x 10^10)
                -0.0000
    Dipole Moment (Debye)
         X       0.7110      Y      -0.0347      Z      -0.0006
       Tot       0.7119
    Quadrupole Moments (Debye-Ang)
        XX     -19.6412     XY      -0.0800     YY     -23.2793
        XZ      -0.0010     YZ      -0.0001     ZZ     -23.2795
    Octopole Moments (Debye-Ang^2)
       XXX    -182.6151    XXY       0.0929    XYY     -62.7671
       YYY       1.5901    XXZ      -0.0045    XYZ      -0.0000
       YYZ       0.0242    XZZ     -62.9336    YZZ      -2.0521
       ZZZ      -0.0552
    Hexadecapole Moments (Debye-Ang^3)
      XXXX   -1235.3550   XXXY       4.7421   XXYY    -207.7788
      XYYY       7.5172   YYYY     -57.3882   XXXZ       0.0110
      XXYZ      -0.0001   XYYZ       0.0849   YYYZ      -0.0021
      XXZZ    -208.7146   XYZZ      -5.0620   YYZZ     -19.0474
      XZZZ      -0.1210   YZZZ      -0.0026   ZZZZ     -57.0860
 -----------------------------------------------------------------
Archival summary:
1\1\mm2.localdomain\SP\MP2\BasisUnspecified\i116h8\xuedong\WedJul316:32:212019WedJul316:32:212019\0\\#,MP2,BasisUnspecified,\\0,1\Si\H,1,1.48082\H,1,1.48101,2,108.355\H,1,1.48102,2,108.352,3,117.378,0\C,1,1.87779,2,110.59,3,-121.313,0\H,5,1.08857,1,110.822,2,-179.993,0\H,5,1.08857,1,110.817,2,-59.9922,0\H,5,1.08857,1,110.817,2,60.0054,0\Gh,2,4.62511,1,102.182,3,-69.8429,0\Gh,9,1.08871,2,106.527,1,69.1554,0\Gh,10,1.0887,9,108.112,2,42.1945,0\Gh,10,1.08879,9,108.16,2,-74.7005,0\Gh,10,1.87805,9,110.776,2,163.75,0\Gh,13,1.48099,10,110.579,9,60.0049,0\Gh,13,1.48099,10,110.572,9,-59.9939,0\Gh,13,1.48099,10,110.58,9,-179.993,0\\HF=-330.32317\MP2=-330.646812\\@

 Total job time:  208.50s(wall), 1242.23s(cpu) 
 Wed Jul  3 16:32:21 2019

        *************************************************************
        *                                                           *
        *  Thank you very much for using Q-Chem.  Have a nice day.  *
        *                                                           *
        *************************************************************



Running Job 3 of 3 ../qm_inp/SiH3CH3_SiH3CH3_con1.150.qcinp
qchem ../qm_inp/SiH3CH3_SiH3CH3_con1.150.qcinp_33694.2 /scratch/xuedong/qchem33694/ 1
/home/qwang/software/qchem5.1.2/exe/qcprog.exe_s ../qm_inp/SiH3CH3_SiH3CH3_con1.150.qcinp_33694.2 /scratch/xuedong/qchem33694/
Check license passed

                  Welcome to Q-Chem
     A Quantum Leap Into The Future Of Chemistry


 Q-Chem 5.1, Q-Chem, Inc., Pleasanton, CA (2018)

 Yihan Shao,  Zhengting Gan,  E. Epifanovsky,  A. T. B. Gilbert,  M. Wormit,  
 J. Kussmann,  A. W. Lange,  A. Behn,  Jia Deng,  Xintian Feng,  D. Ghosh,  
 M. Goldey,  P. R. Horn,  L. D. Jacobson,  I. Kaliman,  T. Kus,  A. Landau,  
 Jie Liu,  E. I. Proynov,  R. M. Richard,  R. P. Steele,  E. J. Sundstrom,  
 H. L. Woodcock III,  P. M. Zimmerman,  D. Zuev,  B. Albrecht,  E. Alguire,  
 S. A. Baeppler,  D. Barton,  Z. Benda,  Y. A. Bernard,  E. J. Berquist,  
 K. B. Bravaya,  H. Burton,  D. Casanova,  Chun-Min Chang,  Yunqing Chen,  
 A. Chien,  K. D. Closser,  M. P. Coons,  S. Coriani,  S. Dasgupta,  
 A. L. Dempwolff,  M. Diedenhofen,  Hainam Do,  R. G. Edgar,  Po-Tung Fang,  
 S. Faraji,  S. Fatehi,  Qingguo Feng,  K. D. Fenk,  J. Fosso-Tande,  
 J. Gayvert,  Qinghui Ge,  A. Ghysels,  G. Gidofalvi,  J. Gomes,  
 J. Gonthier,  A. Gunina,  D. Hait,  M. W. D. Hanson-Heine,  
 P. H. P. Harbach,  A. W. Hauser,  J. E. Herr,  E. G. Hohenstein,  
 Z. C. Holden,  Kerwin Hui,  B. C. Huynh,  T.-C. Jagau,  Hyunjun Ji,  
 B. Kaduk,  K. Khistyaev,  Jaehoon Kim,  P. Klunzinger,  K. Koh,  
 D. Kosenkov,  L. Koulias,  T. Kowalczyk,  C. M. Krauter,  A. Kunitsa,  
 Ka Un Lao,  A. Laurent,  K. V. Lawler,  Joonho Lee,  D. Lefrancois,  
 S. Lehtola,  D. S. Levine,  Yi-Pei Li,  You-Sheng Lin,  Fenglai Liu,  
 E. Livshits,  A. Luenser,  P. Manohar,  E. Mansoor,  S. F. Manzer,  
 Shan-Ping Mao,  Yuezhi Mao,  N. Mardirossian,  A. V. Marenich,  
 T. Markovich,  L. A. Martinez-Martinez,  S. A. Maurer,  N. J. Mayhall,  
 S. C. McKenzie,  J.-M. Mewes,  A. F. Morrison,  J. W. Mullinax,  K. Nanda,  
 T. S. Nguyen-Beck,  R. Olivares-Amaya,  J. A. Parkhill,  T. M. Perrine,  
 F. Plasser,  P. Pokhilko,  S. Prager,  A. Prociuk,  E. Ramos,  D. R. Rehn,  
 F. Rob,  M. Schneider,  N. Sergueev,  S. M. Sharada,  S. Sharma,  
 D. W. Small,  T. Stauch,  T. Stein,  Yu-Chuan Su,  A. J. W. Thom,  
 A. Tkatchenko,  T. Tsuchimochi,  N. M. Tubman,  L. Vogt,  M. L. Vidal,  
 O. Vydrov,  M. A. Watson,  J. Wenzel,  M. de Wergifosse,  T. A. Wesolowski,  
 A. White,  J. Witte,  A. Yamada,  Jun Yang,  K. Yao,  S. Yeganeh,  
 S. R. Yost,  Zhi-Qiang You,  A. Zech,  Igor Ying Zhang,  Xing Zhang,  
 Yan Zhao,  Ying Zhu,  B. R. Brooks,  G. K. L. Chan,  C. J. Cramer,  
 M. S. Gordon,  W. J. Hehre,  A. Klamt,  M. W. Schmidt,  C. D. Sherrill,  
 D. G. Truhlar,  A. Aspuru-Guzik,  R. Baer,  A. T. Bell,  N. A. Besley,  
 Jeng-Da Chai,  A. E. DePrince, III,  R. A. DiStasio Jr.,  A. Dreuw,  
 B. D. Dunietz,  T. R. Furlani,  Chao-Ping Hsu,  Yousung Jung,  Jing Kong,  
 D. S. Lambrecht,  WanZhen Liang,  C. Ochsenfeld,  V. A. Rassolov,  
 L. V. Slipchenko,  J. E. Subotnik,  T. Van Voorhis,  J. M. Herbert,  
 A. I. Krylov,  P. M. W. Gill,  M. Head-Gordon

 Contributors to earlier versions of Q-Chem not listed above: 
 R. D. Adamson,  B. Austin,  J. Baker,  G. J. O. Beran,  K. Brandhorst,  
 S. T. Brown,  E. F. C. Byrd,  A. K. Chakraborty,  C.-L. Cheng,  
 Siu Hung Chien,  D. M. Chipman,  D. L. Crittenden,  H. Dachsel,  
 R. J. Doerksen,  A. D. Dutoi,  L. Fusti-Molnar,  W. A. Goddard III,  
 A. Golubeva-Zadorozhnaya,  S. R. Gwaltney,  G. Hawkins,  A. Heyden,  
 S. Hirata,  G. Kedziora,  F. J. Keil,  C. Kelley,  Jihan Kim,  R. A. King,  
 R. Z. Khaliullin,  P. P. Korambath,  W. Kurlancheek,  A. M. Lee,  M. S. Lee,  
 S. V. Levchenko,  Ching Yeh Lin,  D. Liotard,  R. C. Lochan,  I. Lotan,  
 P. E. Maslen,  N. Nair,  D. P. O'Neill,  D. Neuhauser,  E. Neuscamman,  
 C. M. Oana,  R. Olson,  B. Peters,  R. Peverati,  P. A. Pieniazek,  
 Y. M. Rhee,  J. Ritchie,  M. A. Rohrdanz,  E. Rosta,  N. J. Russ,  
 H. F. Schaefer III,  N. E. Schultz,  N. Shenvi,  A. C. Simmonett,  A. Sodt,  
 D. Stuck,  K. S. Thanthiriwatte,  V. Vanovschi,  Tao Wang,  A. Warshel,  
 C. F. Williams,  Q. Wu,  X. Xu,  W. Zhang

 Please cite Q-Chem as follows:
 Y. Shao et al., Mol. Phys. 113, 184-215 (2015)
 DOI: 10.1080/00268976.2014.952696

 Q-Chem 5.1.2 for Intel X86 EM64T Linux

 Parts of Q-Chem use Armadillo 8.300.2 (Tropical Shenanigans).
 http://arma.sourceforge.net/

 Q-Chem begins on Wed Jul  3 16:32:21 2019  

Host: 
0

     Scratch files written to /scratch/xuedong/qchem33694//
 Dec218 |scratch|qcdevops|jenkins|workspace|build_RNUM 6581   
Processing $rem in /home/qwang/software/qchem5.1.2/config/preferences.
 MEM_TOTAL  4000 
Core orbitals will be frozen
Input Ideriv = 1
Curr. Ideriv = -1
Max.  Ideriv = 1

Checking the input file for inconsistencies... 	...done.

--------------------------------------------------------------
User input:
--------------------------------------------------------------

$molecule
0 1
@Si     2.206519773     0.028225580     0.000619108
@H     1.719687849     0.752119435    -1.196193955
@H     1.720552923     0.738931435     1.205678115
@H     1.620645936    -1.331752276    -0.006589851
@C     4.082202750    -0.060760672    -0.000507565
@H     4.444822828    -0.592187257     0.877602138
@H     4.444224422    -0.582384122    -0.884721181
@H     4.516939396     0.937214734     0.004896367
Si    -5.115780393    -0.011744649     0.002086029
H    -5.654190396     0.670315279    -1.197186414
H    -5.643833156     0.673257147     1.204279915
H    -5.610601158    -1.407624492     0.005921390
C    -3.238067136     0.022769093    -0.006038212
H    -2.838811710    -0.478021404     0.874349920
H    -2.846313508    -0.480390488    -0.888442830
H    -2.871100467     1.047854880    -0.008998452
$end

$rem
BASIS = aug-cc-pVTZ
JOB_TYPE  =  SP
METHOD  =  MP2
SCF_MAX_CYCLES  =  200
$end
--------------------------------------------------------------
 ----------------------------------------------------------------
             Standard Nuclear Orientation (Angstroms)
    I     Atom           X                Y                Z
 ----------------------------------------------------------------
    1      GH      2.2065197730     0.0282255800     0.0006191080
    2      GH      1.7196878490     0.7521194350    -1.1961939550
    3      GH      1.7205529230     0.7389314350     1.2056781150
    4      GH      1.6206459360    -1.3317522760    -0.0065898510
    5      GH      4.0822027500    -0.0607606720    -0.0005075650
    6      GH      4.4448228280    -0.5921872570     0.8776021380
    7      GH      4.4442244220    -0.5823841220    -0.8847211810
    8      GH      4.5169393960     0.9372147340     0.0048963670
    9      Si     -5.1157803930    -0.0117446490     0.0020860290
   10      H      -5.6541903960     0.6703152790    -1.1971864140
   11      H      -5.6438331560     0.6732571470     1.2042799150
   12      H      -5.6106011580    -1.4076244920     0.0059213900
   13      C      -3.2380671360     0.0227690930    -0.0060382120
   14      H      -2.8388117100    -0.4780214040     0.8743499200
   15      H      -2.8463135080    -0.4803904880    -0.8884428300
   16      H      -2.8711004670     1.0478548800    -0.0089984520
 ----------------------------------------------------------------
 Nuclear Repulsion Energy =    62.8498152178 hartrees
 There are       13 alpha and       13 beta electrons
 Requested basis set is aug-cc-pVTZ
 There are 168 shells and 468 basis functions

 Total QAlloc Memory Limit   4000 MB
 Mega-Array Size       188 MB
 MEM_STATIC part       192 MB
 A cutoff of  1.0D-08 yielded   9861 shell pairs
 There are     71601 function pairs (     90425 Cartesian)
 
 -------------------------------------------------------
 OpenMP Integral Computing Module                       
 Release: version 1.0, May 2013, Q-Chem Inc. Pittsburgh 
 -------------------------------------------------------
 Integral Job Info:
 Integral job number is                      11
 Integral operator is                         1
 short-range coefficients                     0
 long-range coefficients              100000000
 Omega coefficients                           0
 if combine SR and LR in K                    0
 Integral screening is                        0
 Integral computing path is                   2
 max size of driver memory is            800000
 size of driver memory is                776718
 size of scratch memory is             29531563
 max col of scratch BK array              10000
 max len of scratch array in speh3          662
 max len of scratch index in speh4           32
 max int batch size is                      520
 min int batch size is                       52
 fixed nKL is                                31
 max L of basis functions is                  3
 order of int derivative is                   0
 number of shells is                        168
 number of basis is                         528
 number of cartesian basis is               528
 number of contracted shell pairs          9861
 number of primitive shell pairs          27242
 maxK2 (contraction) of shell pair          169
 max number of K2 of shell pair               1
 max number of CS2 of shell pair           1907
 max number of PS2 of shell pair           2639
 mem total for path MDJ                  733948
 -------------------------------------------------------
 Smallest overlap matrix eigenvalue = 1.25E-05

 Q-Chem warning in module stvman/mkSTV.C, line 306:

 Overlap eigenvalue is smaller than square root of threshold
 Use THRESH >= 12 to get rid of this warning


 Scale SEOQF with 1.000000e-02/1.000000e-01/1.000000e-01

 Standard Electronic Orientation quadrupole field applied
 Nucleus-field energy     =     0.0000000018 hartrees
 Guess from superposition of atomic densities
 Warning:  Energy on first SCF cycle will be non-variational
 SAD guess density has 26.000000 electrons

 -----------------------------------------------------------------------
  General SCF calculation program by
  Eric Jon Sundstrom, Paul Horn, Yuezhi Mao, Dmitri Zuev, Alec White,
  David Stuck, Shaama M.S., Shane Yost, Joonho Lee, David Small,
  Daniel Levine, Susi Lehtola, Hugh Burton, Evgeny Epifanovsky
 -----------------------------------------------------------------------
 Hartree-Fock
 using 6 threads for integral computing
 -------------------------------------------------------
 OpenMP Integral computing Module                
 Release: version 1.0, May 2013, Q-Chem Inc. Pittsburgh 
 -------------------------------------------------------
 A restricted SCF calculation will be
 performed using DIIS
 SCF converges when DIIS error is below 1.0e-05
 ---------------------------------------
  Cycle       Energy         DIIS error
 ---------------------------------------
    1    -330.4723284859      1.04e-02  
    2    -330.2950652888      7.86e-04  
    3    -330.3203115527      2.33e-04  
    4    -330.3227813375      9.48e-05  
    5    -330.3231469345      1.18e-05  
    6    -330.3231580793      2.48e-06  Convergence criterion met
 ---------------------------------------
 SCF time:   CPU 366.48s  wall 61.00s 
 SCF   energy in the final basis set =     -330.3231580793
 Total energy in the final basis set =     -330.3231580793
 
 Components of the MP2 correlation energy:
        aaaa  correlation energy =        -0.0278501112 au
        abab  correlation energy =        -0.2679461009 au
        bbbb  correlation energy =        -0.0278501112 au
        non-Brillouin singles    =        -0.0000000000 au

 Total  MP2   correlation energy =                    -0.32364632 au
        MP2         total energy =                  -330.64680440 au
 
 --------------------------------------------------------------
 
                    Orbital Energies (a.u.)
 --------------------------------------------------------------
 
 Alpha MOs
 -- Occupied --
-68.766 -11.209  -6.115  -4.221  -4.221  -4.220  -0.950  -0.699
 -0.565  -0.565  -0.469  -0.469  -0.455
 -- Virtual --
  0.019   0.032   0.038   0.038   0.040   0.050   0.050   0.057
  0.067   0.067   0.069   0.070   0.081   0.082   0.082   0.087
  0.100   0.100   0.107   0.125   0.125   0.126   0.140   0.142
  0.142   0.146   0.160   0.160   0.163   0.176   0.176   0.186
  0.194   0.195   0.204   0.205   0.219   0.228   0.228   0.230
  0.230   0.231   0.235   0.259   0.260   0.261   0.276   0.289
  0.289   0.292   0.298   0.304   0.309   0.309   0.312   0.324
  0.324   0.331   0.335   0.336   0.339   0.342   0.343   0.365
  0.366   0.373   0.374   0.377   0.378   0.390   0.391   0.395
  0.397   0.427   0.427   0.432   0.437   0.448   0.452   0.452
  0.454   0.457   0.460   0.466   0.468   0.469   0.471   0.483
  0.483   0.492   0.493   0.501   0.502   0.503   0.535   0.538
  0.544   0.545   0.554   0.556   0.558   0.581   0.601   0.618
  0.619   0.630   0.645   0.651   0.654   0.655   0.673   0.674
  0.674   0.678   0.680   0.692   0.693   0.708   0.714   0.717
  0.732   0.752   0.756   0.757   0.793   0.801   0.801   0.824
  0.826   0.830   0.834   0.835   0.851   0.861   0.864   0.898
  0.899   0.899   0.928   0.928   0.934   0.953   0.954   0.958
  0.962   0.962   0.980   0.982   1.006   1.011   1.025   1.031
  1.032   1.038   1.039   1.040   1.050   1.062   1.064   1.082
  1.083   1.096   1.098   1.104   1.118   1.119   1.132   1.132
  1.145   1.149   1.150   1.159   1.159   1.163   1.168   1.168
  1.182   1.183   1.184   1.186   1.195   1.196   1.198   1.209
  1.213   1.225   1.230   1.231   1.240   1.268   1.269   1.274
  1.290   1.301   1.302   1.334   1.334   1.337   1.344   1.365
  1.367   1.369   1.369   1.379   1.380   1.386   1.387   1.397
  1.399   1.409   1.422   1.424   1.429   1.430   1.441   1.441
  1.449   1.449   1.487   1.488   1.492   1.524   1.525   1.537
  1.551   1.599   1.599   1.610   1.613   1.621   1.635   1.637
  1.649   1.650   1.683   1.689   1.689   1.700   1.700   1.754
  1.766   1.767   1.775   1.803   1.833   1.834   1.835   1.850
  1.855   1.856   1.879   1.896   1.897   1.922   1.923   1.933
  2.010   2.011   2.020   2.024   2.028   2.029   2.045   2.065
  2.065   2.076   2.107   2.127   2.131   2.132   2.137   2.138
  2.159   2.159   2.218   2.263   2.264   2.279   2.279   2.311
  2.338   2.350   2.350   2.366   2.367   2.426   2.458   2.459
  2.497   2.533   2.534   2.559   2.674   2.675   2.763   2.768
  2.768   2.774   2.998   2.999   3.090   3.090   3.104   3.151
  3.319   3.416   3.416   3.443   3.563   3.563   3.613   3.653
  3.663   3.663   3.711   3.711   3.756   3.757   3.827   3.828
  3.857   3.931   3.946   3.946   3.993   4.011   4.034   4.034
  4.079   4.086   4.103   4.107   4.116   4.117   4.123   4.123
  4.132   4.132   4.164   4.164   4.166   4.206   4.206   4.210
  4.217   4.218   4.244   4.271   4.272   4.332   4.333   4.335
  4.349   4.360   4.361   4.365   4.401   4.401   4.410   4.424
  4.473   4.474   4.499   4.500   4.506   4.531   4.534   4.534
  4.538   4.593   4.596   4.597   4.609   4.616   4.616   4.634
  4.654   4.655   4.721   4.723   4.761   4.761   4.783   4.790
  4.802   4.802   4.846   4.847   4.873   4.888   4.888   4.910
  4.912   4.912   5.003   5.021   5.022   5.051   5.053   5.155
  5.155   5.162   5.162   5.221   5.231   5.236   5.237   5.278
  5.278   5.331   5.346   5.349   5.349   5.351   5.450   5.450
  5.470   5.489   5.489   5.565   5.599   5.600   5.629   5.638
  5.638   5.737   5.939   6.055   6.108   6.110   6.136   6.137
  6.137   6.186   6.186   6.199   6.695   6.696   6.738   6.738
  7.063   7.489   7.800   7.800   8.144   8.144   9.037  10.269
 15.016  17.262  20.433  20.434  20.854  51.363 106.974
 --------------------------------------------------------------
 
          Ground-State Mulliken Net Atomic Charges

     Atom                 Charge (a.u.)
  ----------------------------------------
      1 GH                   -0.001312
      2 GH                   -0.000424
      3 GH                   -0.000424
      4 GH                   -0.000629
      5 GH                   -0.000218
      6 GH                   -0.000063
      7 GH                   -0.000062
      8 GH                   -0.000056
      9 Si                    1.386707
     10 H                    -0.398424
     11 H                    -0.398082
     12 H                    -0.398105
     13 C                    -1.057102
     14 H                     0.289960
     15 H                     0.289497
     16 H                     0.288730
  ----------------------------------------
  Sum of atomic charges =    -0.000006

 -----------------------------------------------------------------
                    Cartesian Multipole Moments
 -----------------------------------------------------------------
    Charge (ESU x 10^10)
                -0.0000
    Dipole Moment (Debye)
         X       0.7121      Y       0.0132      Z      -0.0031
       Tot       0.7122
    Quadrupole Moments (Debye-Ang)
        XX     -30.0721     XY      -0.0682     YY     -23.2777
        XZ       0.0149     YZ       0.0000     ZZ     -23.2792
    Octopole Moments (Debye-Ang^2)
       XXX     363.2797    XXY       0.2599    XYY     107.5672
       YYY       2.1272    XXZ      -0.0365    XYZ      -0.0078
       YYZ      -0.0061    XZZ     107.6446    YZZ      -1.8765
       ZZZ       0.0102
    Hexadecapole Moments (Debye-Ang^3)
      XXXX   -3321.4120   XXXY      -1.6734   XXYY    -535.6707
      XYYY     -10.4581   YYYY     -57.1194   XXXZ       0.1212
      XXYZ       0.0695   XYYZ       0.1107   YYYZ       0.0026
      XXZZ    -536.3176   XYZZ       7.8625   YYZZ     -19.0432
      XZZZ       0.2086   YZZZ       0.0109   ZZZZ     -57.0905
 -----------------------------------------------------------------
Archival summary:
1\1\mm2.localdomain\SP\MP2\BasisUnspecified\i116h8\xuedong\WedJul316:35:572019WedJul316:35:572019\0\\#,MP2,BasisUnspecified,\\0,1\Si\H,1,1.48099\H,1,1.48099,2,108.344\H,1,1.48099,2,108.342,3,117.337,0\C,1,1.87805,2,110.579,3,-121.327,0\H,5,1.0887,1,110.78,2,179.978,0\H,5,1.08871,1,110.776,2,60.0049,0\H,5,1.08879,1,110.75,2,-60.0084,0\Gh,7,4.62511,5,106.527,1,163.75,0\Gh,9,1.48082,7,102.182,5,69.1554,0\Gh,10,1.48101,9,108.355,7,-69.8429,0\Gh,10,1.48102,9,108.352,7,47.535,0\Gh,10,1.87779,9,110.59,7,168.844,0\Gh,13,1.08857,10,110.822,9,-179.993,0\Gh,13,1.08857,10,110.817,9,-59.9922,0\Gh,13,1.08857,10,110.817,9,60.0054,0\\HF=-330.323158\MP2=-330.646804\\@

 Total job time:  215.09s(wall), 1281.19s(cpu) 
 Wed Jul  3 16:35:57 2019

        *************************************************************
        *                                                           *
        *  Thank you very much for using Q-Chem.  Have a nice day.  *
        *                                                           *
        *************************************************************


