
Running Job 1 of 1 ../qm_inp/SiH3CH3_SiH3CH3_con1.090.qcinp
qchem ../qm_inp/SiH3CH3_SiH3CH3_con1.090.qcinp_22352.0 /scratch/xuedong/qchem22352/ 1
/home/qwang/software/qchem5.1.2/exe/qcprog.exe_s ../qm_inp/SiH3CH3_SiH3CH3_con1.090.qcinp_22352.0 /scratch/xuedong/qchem22352/
Check license passed

                  Welcome to Q-Chem
     A Quantum Leap Into The Future Of Chemistry


 Q-Chem 5.1, Q-Chem, Inc., Pleasanton, CA (2018)

 Yihan Shao,  Zhengting Gan,  E. Epifanovsky,  A. T. B. Gilbert,  M. Wormit,  
 J. Kussmann,  A. W. Lange,  A. Behn,  Jia Deng,  Xintian Feng,  D. Ghosh,  
 M. Goldey,  P. R. Horn,  L. D. Jacobson,  I. Kaliman,  T. Kus,  A. Landau,  
 Jie Liu,  E. I. Proynov,  R. M. Richard,  R. P. Steele,  E. J. Sundstrom,  
 H. L. Woodcock III,  P. M. Zimmerman,  D. Zuev,  B. Albrecht,  E. Alguire,  
 S. A. Baeppler,  D. Barton,  Z. Benda,  Y. A. Bernard,  E. J. Berquist,  
 K. B. Bravaya,  H. Burton,  D. Casanova,  Chun-Min Chang,  Yunqing Chen,  
 A. Chien,  K. D. Closser,  M. P. Coons,  S. Coriani,  S. Dasgupta,  
 A. L. Dempwolff,  M. Diedenhofen,  Hainam Do,  R. G. Edgar,  Po-Tung Fang,  
 S. Faraji,  S. Fatehi,  Qingguo Feng,  K. D. Fenk,  J. Fosso-Tande,  
 J. Gayvert,  Qinghui Ge,  A. Ghysels,  G. Gidofalvi,  J. Gomes,  
 J. Gonthier,  A. Gunina,  D. Hait,  M. W. D. Hanson-Heine,  
 P. H. P. Harbach,  A. W. Hauser,  J. E. Herr,  E. G. Hohenstein,  
 Z. C. Holden,  Kerwin Hui,  B. C. Huynh,  T.-C. Jagau,  Hyunjun Ji,  
 B. Kaduk,  K. Khistyaev,  Jaehoon Kim,  P. Klunzinger,  K. Koh,  
 D. Kosenkov,  L. Koulias,  T. Kowalczyk,  C. M. Krauter,  A. Kunitsa,  
 Ka Un Lao,  A. Laurent,  K. V. Lawler,  Joonho Lee,  D. Lefrancois,  
 S. Lehtola,  D. S. Levine,  Yi-Pei Li,  You-Sheng Lin,  Fenglai Liu,  
 E. Livshits,  A. Luenser,  P. Manohar,  E. Mansoor,  S. F. Manzer,  
 Shan-Ping Mao,  Yuezhi Mao,  N. Mardirossian,  A. V. Marenich,  
 T. Markovich,  L. A. Martinez-Martinez,  S. A. Maurer,  N. J. Mayhall,  
 S. C. McKenzie,  J.-M. Mewes,  A. F. Morrison,  J. W. Mullinax,  K. Nanda,  
 T. S. Nguyen-Beck,  R. Olivares-Amaya,  J. A. Parkhill,  T. M. Perrine,  
 F. Plasser,  P. Pokhilko,  S. Prager,  A. Prociuk,  E. Ramos,  D. R. Rehn,  
 F. Rob,  M. Schneider,  N. Sergueev,  S. M. Sharada,  S. Sharma,  
 D. W. Small,  T. Stauch,  T. Stein,  Yu-Chuan Su,  A. J. W. Thom,  
 A. Tkatchenko,  T. Tsuchimochi,  N. M. Tubman,  L. Vogt,  M. L. Vidal,  
 O. Vydrov,  M. A. Watson,  J. Wenzel,  M. de Wergifosse,  T. A. Wesolowski,  
 A. White,  J. Witte,  A. Yamada,  Jun Yang,  K. Yao,  S. Yeganeh,  
 S. R. Yost,  Zhi-Qiang You,  A. Zech,  Igor Ying Zhang,  Xing Zhang,  
 Yan Zhao,  Ying Zhu,  B. R. Brooks,  G. K. L. Chan,  C. J. Cramer,  
 M. S. Gordon,  W. J. Hehre,  A. Klamt,  M. W. Schmidt,  C. D. Sherrill,  
 D. G. Truhlar,  A. Aspuru-Guzik,  R. Baer,  A. T. Bell,  N. A. Besley,  
 Jeng-Da Chai,  A. E. DePrince, III,  R. A. DiStasio Jr.,  A. Dreuw,  
 B. D. Dunietz,  T. R. Furlani,  Chao-Ping Hsu,  Yousung Jung,  Jing Kong,  
 D. S. Lambrecht,  WanZhen Liang,  C. Ochsenfeld,  V. A. Rassolov,  
 L. V. Slipchenko,  J. E. Subotnik,  T. Van Voorhis,  J. M. Herbert,  
 A. I. Krylov,  P. M. W. Gill,  M. Head-Gordon

 Contributors to earlier versions of Q-Chem not listed above: 
 R. D. Adamson,  B. Austin,  J. Baker,  G. J. O. Beran,  K. Brandhorst,  
 S. T. Brown,  E. F. C. Byrd,  A. K. Chakraborty,  C.-L. Cheng,  
 Siu Hung Chien,  D. M. Chipman,  D. L. Crittenden,  H. Dachsel,  
 R. J. Doerksen,  A. D. Dutoi,  L. Fusti-Molnar,  W. A. Goddard III,  
 A. Golubeva-Zadorozhnaya,  S. R. Gwaltney,  G. Hawkins,  A. Heyden,  
 S. Hirata,  G. Kedziora,  F. J. Keil,  C. Kelley,  Jihan Kim,  R. A. King,  
 R. Z. Khaliullin,  P. P. Korambath,  W. Kurlancheek,  A. M. Lee,  M. S. Lee,  
 S. V. Levchenko,  Ching Yeh Lin,  D. Liotard,  R. C. Lochan,  I. Lotan,  
 P. E. Maslen,  N. Nair,  D. P. O'Neill,  D. Neuhauser,  E. Neuscamman,  
 C. M. Oana,  R. Olson,  B. Peters,  R. Peverati,  P. A. Pieniazek,  
 Y. M. Rhee,  J. Ritchie,  M. A. Rohrdanz,  E. Rosta,  N. J. Russ,  
 H. F. Schaefer III,  N. E. Schultz,  N. Shenvi,  A. C. Simmonett,  A. Sodt,  
 D. Stuck,  K. S. Thanthiriwatte,  V. Vanovschi,  Tao Wang,  A. Warshel,  
 C. F. Williams,  Q. Wu,  X. Xu,  W. Zhang

 Please cite Q-Chem as follows:
 Y. Shao et al., Mol. Phys. 113, 184-215 (2015)
 DOI: 10.1080/00268976.2014.952696

 Q-Chem 5.1.2 for Intel X86 EM64T Linux

 Parts of Q-Chem use Armadillo 8.300.2 (Tropical Shenanigans).
 http://arma.sourceforge.net/

 Q-Chem begins on Tue Jul  2 10:41:52 2019  

Host: 
0

     Scratch files written to /scratch/xuedong/qchem22352//
 Dec218 |scratch|qcdevops|jenkins|workspace|build_RNUM 6581   
Processing $rem in /home/qwang/software/qchem5.1.2/config/preferences.
 MEM_TOTAL  4000 
Core orbitals will be frozen
Input Ideriv = 1
Curr. Ideriv = -1
Max.  Ideriv = 1

Checking the input file for inconsistencies... 	...done.

--------------------------------------------------------------
User input:
--------------------------------------------------------------
$molecule
0 1
--
0 1
Si     2.206519773     0.028225580     0.000619108
H     1.719687849     0.752119435    -1.196193955
H     1.720552923     0.738931435     1.205678115
H     1.620645936    -1.331752276    -0.006589851
C     4.082202750    -0.060760672    -0.000507565
H     4.444822828    -0.592187257     0.877602138
H     4.444224422    -0.582384122    -0.884721181
H     4.516939396     0.937214734     0.004896367
--
0 1
Si    -3.145449703    -0.011656689     0.002296328
H    -3.683859706     0.670403238    -1.196976114
H    -3.673502467     0.673345106     1.204490214
H    -3.640270468    -1.407536533     0.006131689
C    -1.267736447     0.022857052    -0.005827912
H    -0.868481020    -0.477933444     0.874560220
H    -0.875982819    -0.480302529    -0.888232531
H    -0.900769778     1.047942839    -0.008788152
$end

$rem
BASIS = aug-cc-pVTZ
JOB_TYPE  =  BSSE
METHOD  =  MP2
SCF_CONVERGENCE  =  7
SCF_MAX_CYCLES  =  200
$end

--------------------------------------------------------------
 ----------------------------------------------------------------
             Standard Nuclear Orientation (Angstroms)
    I     Atom           X                Y                Z
 ----------------------------------------------------------------
    1      Si     -2.0417351469    -0.0329114296     0.0018139797
    2      H      -1.5537348882    -0.7842458484    -1.1774830490
    3      H      -1.5542639920    -0.7137605574     1.2233908869
    4      H      -1.4583974736     1.3275942506    -0.0379521341
    5      C      -3.9175808246     0.0525351972    -0.0010704769
    6      H      -4.2810586686     0.6040849280     0.8641814737
    7      H      -4.2807065375     0.5522410747    -0.8974064552
    8      H      -4.3504563640    -0.9458337656     0.0282253652
    9      Si      3.3101509168     0.0169497969     0.0014981805
   10      H       3.8496508457    -0.6925254543    -1.1812655999
   11      H       3.8396595875    -0.6381927402     1.2195893692
   12      H       3.8023704386     1.4134413886    -0.0280655657
   13      C       1.4325040318    -0.0212389231    -0.0054350943
   14      H       1.0324483293     0.4996697370     0.8628326540
   15      H       1.0396810903     0.4599962534    -0.8995163110
   16      H       1.0674476104    -1.0467840541     0.0161325514
 ----------------------------------------------------------------
 Molecular Point Group                 C1    NOp =  1
 Largest Abelian Subgroup              C1    NOp =  1
 Nuclear Repulsion Energy =   196.9001864634 hartrees
 There are       26 alpha and       26 beta electrons
 Requested basis set is aug-cc-pVTZ
 There are 168 shells and 468 basis functions

 Total QAlloc Memory Limit   4000 MB
 Mega-Array Size       188 MB
 MEM_STATIC part       192 MB
 A cutoff of  1.0D-10 yielded  12134 shell pairs
 There are     91614 function pairs (    116340 Cartesian)
 
 -------------------------------------------------------
 OpenMP Integral Computing Module                       
 Release: version 1.0, May 2013, Q-Chem Inc. Pittsburgh 
 -------------------------------------------------------
 Integral Job Info:
 Integral job number is                      11
 Integral operator is                         1
 short-range coefficients                     0
 long-range coefficients              100000000
 Omega coefficients                           0
 if combine SR and LR in K                    0
 Integral screening is                        0
 Integral computing path is                   2
 max size of driver memory is            800000
 size of driver memory is                776718
 size of scratch memory is             29531563
 max col of scratch BK array              10000
 max len of scratch array in speh3          662
 max len of scratch index in speh4           32
 max int batch size is                      520
 min int batch size is                       52
 fixed nKL is                                31
 max L of basis functions is                  3
 order of int derivative is                   0
 number of shells is                        168
 number of basis is                         528
 number of cartesian basis is               528
 number of contracted shell pairs         12134
 number of primitive shell pairs          32785
 maxK2 (contraction) of shell pair          169
 max number of K2 of shell pair               1
 max number of CS2 of shell pair           2267
 max number of PS2 of shell pair           3081
 mem total for path MDJ                  805084
 -------------------------------------------------------
 Smallest overlap matrix eigenvalue = 9.53E-06

 Q-Chem warning in module stvman/mkSTV.C, line 306:

 Overlap eigenvalue is smaller than square root of threshold
 Use THRESH >= 12 to get rid of this warning


 Scale SEOQF with 1.000000e-01/1.000000e-01/1.000000e-01

 Standard Electronic Orientation quadrupole field applied
 Nucleus-field energy     =     0.0000000149 hartrees
 Guess MOs from converged MOs on fragments

-----------------------------------------------------------------
 SCF on fragment 1 out of 2
/home/qwang/software/qchem5.1.2/exe/qcprog.exe /scratch/xuedong/qchem22352/Frg1.input /scratch/xuedong/qchem22352/Frg1/ > /dev/null 
 SCF on fragment 2 out of 2
/home/qwang/software/qchem5.1.2/exe/qcprog.exe /scratch/xuedong/qchem22352/Frg2.input /scratch/xuedong/qchem22352/Frg2/ > /dev/null 
-----------------------------------------------------------------
 Done with SCF on isolated fragments
-----------------------------------------------------------------

 User-specified occupied guess orbitals will be used
 A restricted Hartree-Fock SCF calculation will be
 performed using Pulay DIIS extrapolation
 SCF converges when DIIS error is below 1.0E-07
 using 6 threads for integral computing
 -------------------------------------------------------
 OpenMP Integral computing Module                
 Release: version 1.0, May 2013, Q-Chem Inc. Pittsburgh 
 -------------------------------------------------------
 ---------------------------------------
  Cycle       Energy         DIIS Error
 ---------------------------------------
    1    -660.6427893948      1.34E-04
    2    -660.6434462541      1.88E-05
    3    -660.6434697623      4.27E-06
    4    -660.6434707918      1.44E-06
    5    -660.6434709020      3.31E-07
    6    -660.6434709089      1.24E-07
    7    -660.6434709095      9.08E-08 Convergence criterion met
 ---------------------------------------
 SCF time:  CPU 937.62 s  wall 156.26 s

-----------------------------------------------------------------
 SCF CP correction for fragment 1 out of 2
/home/qwang/software/qchem5.1.2/exe/qcprog.exe /scratch/xuedong/qchem22352/Frg1.input /scratch/xuedong/qchem22352/Frg1BSSE/ > /dev/null 
 SCF CP correction for fragment 2 out of 2
/home/qwang/software/qchem5.1.2/exe/qcprog.exe /scratch/xuedong/qchem22352/Frg2.input /scratch/xuedong/qchem22352/Frg2BSSE/ > /dev/null 
-----------------------------------------------------------------
 Done with counterpoise correction on fragments
-----------------------------------------------------------------

 SCF   energy in the final basis set = -660.64347091
 Total energy in the final basis set = -660.64347091
 
 Components of the MP2 correlation energy:
        aaaa  correlation energy =        -0.0566484352 au
        abab  correlation energy =        -0.5384014065 au
        bbbb  correlation energy =        -0.0566484352 au
        non-Brillouin singles    =        -0.0000000000 au

 Total  MP2   correlation energy =                    -0.65169828 au
        MP2         total energy =                  -661.29516919 au
 
 --------------------------------------------------------------
 
                    Orbital Energies (a.u.)
 --------------------------------------------------------------
 
 Alpha MOs
 -- Occupied --
-68.766 -68.764 -11.208 -11.206  -6.115  -6.113  -4.221  -4.221
 -4.221  -4.219  -4.219  -4.219  -0.951  -0.949  -0.705  -0.693
 -0.567  -0.567  -0.563  -0.563  -0.472  -0.471  -0.465  -0.465
 -0.465  -0.443
 -- Virtual --
  0.026   0.035   0.041   0.041   0.046   0.054   0.054   0.065
  0.065   0.065   0.078   0.079   0.086   0.087   0.095   0.107
  0.110   0.110   0.129   0.137   0.138   0.140   0.146   0.149
  0.150   0.155   0.165   0.165   0.167   0.168   0.187   0.191
  0.191   0.206   0.213   0.214   0.230   0.231   0.233   0.252
  0.252   0.255   0.262   0.265   0.265   0.273   0.283   0.299
  0.303   0.305   0.306   0.325   0.327   0.328   0.329   0.335
  0.339   0.339   0.341   0.346   0.346   0.357   0.365   0.367
  0.367   0.370   0.382   0.383   0.393   0.393   0.421   0.422
  0.424   0.432   0.436   0.438   0.442   0.444   0.446   0.460
  0.461   0.467   0.468   0.468   0.489   0.496   0.497   0.500
  0.504   0.507   0.522   0.530   0.534   0.558   0.559   0.563
  0.568   0.569   0.608   0.611   0.612   0.619   0.631   0.641
  0.643   0.644   0.656   0.657   0.668   0.671   0.673   0.681
  0.684   0.687   0.699   0.702   0.720   0.723   0.729   0.731
  0.734   0.747   0.771   0.773   0.781   0.787   0.807   0.819
  0.830   0.830   0.862   0.865   0.869   0.876   0.880   0.884
  0.891   0.898   0.926   0.929   0.931   0.940   0.954   0.962
  0.968   0.973   0.978   0.981   0.985   0.991   1.015   1.015
  1.020   1.023   1.025   1.045   1.045   1.058   1.059   1.060
  1.081   1.088   1.091   1.103   1.110   1.112   1.131   1.143
  1.149   1.155   1.155   1.170   1.174   1.178   1.182   1.196
  1.200   1.202   1.210   1.221   1.222   1.227   1.254   1.255
  1.257   1.259   1.267   1.270   1.283   1.284   1.299   1.300
  1.307   1.314   1.314   1.325   1.334   1.343   1.346   1.371
  1.378   1.397   1.398   1.401   1.405   1.409   1.411   1.429
  1.435   1.435   1.450   1.451   1.455   1.457   1.465   1.483
  1.483   1.523   1.525   1.539   1.545   1.549   1.557   1.558
  1.579   1.596   1.601   1.607   1.610   1.630   1.630   1.633
  1.673   1.675   1.676   1.681   1.694   1.695   1.711   1.713
  1.719   1.767   1.776   1.778   1.838   1.840   1.841   1.844
  1.846   1.898   1.900   1.912   1.916   1.925   1.927   1.977
  1.979   2.008   2.020   2.024   2.036   2.037   2.042   2.044
  2.048   2.071   2.080   2.082   2.087   2.133   2.145   2.148
  2.169   2.174   2.187   2.189   2.210   2.211   2.229   2.234
  2.265   2.277   2.288   2.288   2.298   2.301   2.360   2.375
  2.377   2.422   2.439   2.439   2.754   2.834   3.116   3.117
  3.122   3.161   3.177   3.225   3.341   3.409   3.415   3.416
  3.439   3.441   3.476   3.564   3.565   3.593   3.595   3.613
  3.613   3.616   3.652   3.661   3.662   3.698   3.699   3.725
  3.728   3.787   3.792   3.808   3.837   3.838   3.896   3.904
  3.948   3.948   3.970   3.970   3.994   4.048   4.058   4.061
  4.062   4.078   4.088   4.117   4.117   4.132   4.133   4.134
  4.141   4.145   4.148   4.157   4.160   4.163   4.176   4.179
  4.186   4.208   4.215   4.216   4.223   4.225   4.236   4.239
  4.244   4.295   4.296   4.334   4.343   4.347   4.349   4.357
  4.381   4.388   4.392   4.448   4.514   4.516   4.528   4.529
  4.547   4.590   4.591   4.594   4.604   4.605   4.608   4.640
  4.644   4.655   4.768   4.772   4.791   4.792   4.799   4.824
  4.829   4.838   4.843   4.880   4.886   4.891   4.894   4.903
  5.000   5.005   5.008   5.040   5.044   5.048   5.053   5.055
  5.109   5.140   5.167   5.167   5.196   5.197   5.251   5.252
  5.269   5.270   5.346   5.436   5.564   5.598   5.602   5.602
  5.614   5.614   5.628   5.682   5.958   5.993   6.109   6.110
  6.137   6.141   6.697   6.697   6.730   6.730   9.228   9.369
 17.086  17.835
 --------------------------------------------------------------
 
          Ground-State Mulliken Net Atomic Charges

     Atom                 Charge (a.u.)
  ----------------------------------------
      1 Si                    1.614244
      2 H                    -0.361365
      3 H                    -0.361131
      4 H                    -0.360388
      5 C                    -1.351964
      6 H                     0.263472
      7 H                     0.263465
      8 H                     0.256693
      9 Si                    1.259576
     10 H                    -0.393425
     11 H                    -0.392822
     12 H                    -0.389617
     13 C                    -1.078571
     14 H                     0.342024
     15 H                     0.341993
     16 H                     0.347817
  ----------------------------------------
  Sum of atomic charges =    -0.000000

 -----------------------------------------------------------------
                    Cartesian Multipole Moments
 -----------------------------------------------------------------
    Charge (ESU x 10^10)
                -0.0000
    Dipole Moment (Debye)
         X      -1.3464      Y       0.0218      Z      -0.0045
       Tot       1.3465
    Quadrupole Moments (Debye-Ang)
        XX     -47.8478     XY      -0.1033     YY     -46.5325
        XZ      -0.0059     YZ       0.0000     ZZ     -46.5328
    Octopole Moments (Debye-Ang^2)
       XXX     -33.6568    XXY      -0.1891    XYY      -6.4662
       YYY      -3.6424    XXZ       0.0001    XYZ      -0.0051
       YYZ       0.2867    XZZ      -6.4064    YZZ       3.9842
       ZZZ      -0.3589
    Hexadecapole Moments (Debye-Ang^3)
      XXXX   -2395.5056   XXXY       1.8208   XXYY    -411.3397
      XYYY      -1.4002   YYYY    -114.3829   XXXZ       0.0189
      XXYZ      -0.0725   XYYZ      -0.1506   YYYZ       0.0021
      XXZZ    -412.5842   XYZZ      -0.9146   YYZZ     -38.0647
      XZZZ       0.0774   YZZZ      -0.0022   ZZZZ    -114.0693
 -----------------------------------------------------------------

 ---------------------------------------------------------------------
 *                     Fragment's binding energy                     *
 ---------------------------------------------------------------------
    Fragment           E(TOTAL)         E(CP-CORR)           DE(BSSE)
 ---------------------------------------------------------------------
           1    -330.6467397736    -330.6472481962       0.0005084226
           2    -330.6467409809    -330.6470548842       0.0003139032
     Complex    -661.2951691864
 ---------------------------------------------------------------------
  DE, kJ/mol      -4.4330304466      -2.2739884358
 ---------------------------------------------------------------------

Archival summary:
1\1\mm2.localdomain\SP\MP2\BasisUnspecified\i2212\xuedong\TueJul211:13:412019TueJul211:13:412019\0\\#,MP2,BasisUnspecified,\\0,1\Si\H,1,1.48082\H,1,1.48101,2,108.355\H,1,1.48102,2,108.352,3,117.378,0\C,1,1.87779,2,110.59,3,-121.313,0\H,5,1.08857,1,110.822,2,-179.993,0\H,5,1.08857,1,110.817,2,-59.9922,0\H,5,1.08857,1,110.817,2,60.0054,0\H,2,2.7751,1,94.0577,3,-77.1273,0\C,9,1.08871,2,102.339,1,72.7761,0\H,10,1.0887,9,108.112,2,31.8456,0\H,10,1.08879,9,108.16,2,-85.0494,0\Si,10,1.87805,9,110.776,2,153.401,0\H,13,1.48099,10,110.579,9,60.0049,0\H,13,1.48099,10,110.572,9,-59.9939,0\H,13,1.48099,10,110.58,9,-179.993,0\\HF=-660.643471\MP2=-661.295169\\@

 Total job time:  1908.91s(wall), 4046.71s(cpu) 
 Tue Jul  2 11:13:41 2019

        *************************************************************
        *                                                           *
        *  Thank you very much for using Q-Chem.  Have a nice day.  *
        *                                                           *
        *************************************************************


