
Running Job 1 of 1 ../qm_inp/SiH3CH3_SiH3CH3_con1.105.qcinp
qchem ../qm_inp/SiH3CH3_SiH3CH3_con1.105.qcinp_23299.0 /scratch/xuedong/qchem23299/ 1
/home/qwang/software/qchem5.1.2/exe/qcprog.exe_s ../qm_inp/SiH3CH3_SiH3CH3_con1.105.qcinp_23299.0 /scratch/xuedong/qchem23299/
Check license passed

                  Welcome to Q-Chem
     A Quantum Leap Into The Future Of Chemistry


 Q-Chem 5.1, Q-Chem, Inc., Pleasanton, CA (2018)

 Yihan Shao,  Zhengting Gan,  E. Epifanovsky,  A. T. B. Gilbert,  M. Wormit,  
 J. Kussmann,  A. W. Lange,  A. Behn,  Jia Deng,  Xintian Feng,  D. Ghosh,  
 M. Goldey,  P. R. Horn,  L. D. Jacobson,  I. Kaliman,  T. Kus,  A. Landau,  
 Jie Liu,  E. I. Proynov,  R. M. Richard,  R. P. Steele,  E. J. Sundstrom,  
 H. L. Woodcock III,  P. M. Zimmerman,  D. Zuev,  B. Albrecht,  E. Alguire,  
 S. A. Baeppler,  D. Barton,  Z. Benda,  Y. A. Bernard,  E. J. Berquist,  
 K. B. Bravaya,  H. Burton,  D. Casanova,  Chun-Min Chang,  Yunqing Chen,  
 A. Chien,  K. D. Closser,  M. P. Coons,  S. Coriani,  S. Dasgupta,  
 A. L. Dempwolff,  M. Diedenhofen,  Hainam Do,  R. G. Edgar,  Po-Tung Fang,  
 S. Faraji,  S. Fatehi,  Qingguo Feng,  K. D. Fenk,  J. Fosso-Tande,  
 J. Gayvert,  Qinghui Ge,  A. Ghysels,  G. Gidofalvi,  J. Gomes,  
 J. Gonthier,  A. Gunina,  D. Hait,  M. W. D. Hanson-Heine,  
 P. H. P. Harbach,  A. W. Hauser,  J. E. Herr,  E. G. Hohenstein,  
 Z. C. Holden,  Kerwin Hui,  B. C. Huynh,  T.-C. Jagau,  Hyunjun Ji,  
 B. Kaduk,  K. Khistyaev,  Jaehoon Kim,  P. Klunzinger,  K. Koh,  
 D. Kosenkov,  L. Koulias,  T. Kowalczyk,  C. M. Krauter,  A. Kunitsa,  
 Ka Un Lao,  A. Laurent,  K. V. Lawler,  Joonho Lee,  D. Lefrancois,  
 S. Lehtola,  D. S. Levine,  Yi-Pei Li,  You-Sheng Lin,  Fenglai Liu,  
 E. Livshits,  A. Luenser,  P. Manohar,  E. Mansoor,  S. F. Manzer,  
 Shan-Ping Mao,  Yuezhi Mao,  N. Mardirossian,  A. V. Marenich,  
 T. Markovich,  L. A. Martinez-Martinez,  S. A. Maurer,  N. J. Mayhall,  
 S. C. McKenzie,  J.-M. Mewes,  A. F. Morrison,  J. W. Mullinax,  K. Nanda,  
 T. S. Nguyen-Beck,  R. Olivares-Amaya,  J. A. Parkhill,  T. M. Perrine,  
 F. Plasser,  P. Pokhilko,  S. Prager,  A. Prociuk,  E. Ramos,  D. R. Rehn,  
 F. Rob,  M. Schneider,  N. Sergueev,  S. M. Sharada,  S. Sharma,  
 D. W. Small,  T. Stauch,  T. Stein,  Yu-Chuan Su,  A. J. W. Thom,  
 A. Tkatchenko,  T. Tsuchimochi,  N. M. Tubman,  L. Vogt,  M. L. Vidal,  
 O. Vydrov,  M. A. Watson,  J. Wenzel,  M. de Wergifosse,  T. A. Wesolowski,  
 A. White,  J. Witte,  A. Yamada,  Jun Yang,  K. Yao,  S. Yeganeh,  
 S. R. Yost,  Zhi-Qiang You,  A. Zech,  Igor Ying Zhang,  Xing Zhang,  
 Yan Zhao,  Ying Zhu,  B. R. Brooks,  G. K. L. Chan,  C. J. Cramer,  
 M. S. Gordon,  W. J. Hehre,  A. Klamt,  M. W. Schmidt,  C. D. Sherrill,  
 D. G. Truhlar,  A. Aspuru-Guzik,  R. Baer,  A. T. Bell,  N. A. Besley,  
 Jeng-Da Chai,  A. E. DePrince, III,  R. A. DiStasio Jr.,  A. Dreuw,  
 B. D. Dunietz,  T. R. Furlani,  Chao-Ping Hsu,  Yousung Jung,  Jing Kong,  
 D. S. Lambrecht,  WanZhen Liang,  C. Ochsenfeld,  V. A. Rassolov,  
 L. V. Slipchenko,  J. E. Subotnik,  T. Van Voorhis,  J. M. Herbert,  
 A. I. Krylov,  P. M. W. Gill,  M. Head-Gordon

 Contributors to earlier versions of Q-Chem not listed above: 
 R. D. Adamson,  B. Austin,  J. Baker,  G. J. O. Beran,  K. Brandhorst,  
 S. T. Brown,  E. F. C. Byrd,  A. K. Chakraborty,  C.-L. Cheng,  
 Siu Hung Chien,  D. M. Chipman,  D. L. Crittenden,  H. Dachsel,  
 R. J. Doerksen,  A. D. Dutoi,  L. Fusti-Molnar,  W. A. Goddard III,  
 A. Golubeva-Zadorozhnaya,  S. R. Gwaltney,  G. Hawkins,  A. Heyden,  
 S. Hirata,  G. Kedziora,  F. J. Keil,  C. Kelley,  Jihan Kim,  R. A. King,  
 R. Z. Khaliullin,  P. P. Korambath,  W. Kurlancheek,  A. M. Lee,  M. S. Lee,  
 S. V. Levchenko,  Ching Yeh Lin,  D. Liotard,  R. C. Lochan,  I. Lotan,  
 P. E. Maslen,  N. Nair,  D. P. O'Neill,  D. Neuhauser,  E. Neuscamman,  
 C. M. Oana,  R. Olson,  B. Peters,  R. Peverati,  P. A. Pieniazek,  
 Y. M. Rhee,  J. Ritchie,  M. A. Rohrdanz,  E. Rosta,  N. J. Russ,  
 H. F. Schaefer III,  N. E. Schultz,  N. Shenvi,  A. C. Simmonett,  A. Sodt,  
 D. Stuck,  K. S. Thanthiriwatte,  V. Vanovschi,  Tao Wang,  A. Warshel,  
 C. F. Williams,  Q. Wu,  X. Xu,  W. Zhang

 Please cite Q-Chem as follows:
 Y. Shao et al., Mol. Phys. 113, 184-215 (2015)
 DOI: 10.1080/00268976.2014.952696

 Q-Chem 5.1.2 for Intel X86 EM64T Linux

 Parts of Q-Chem use Armadillo 8.300.2 (Tropical Shenanigans).
 http://arma.sourceforge.net/

 Q-Chem begins on Tue Jul  2 12:09:54 2019  

Host: 
0

     Scratch files written to /scratch/xuedong/qchem23299//
 Dec218 |scratch|qcdevops|jenkins|workspace|build_RNUM 6581   
Processing $rem in /home/qwang/software/qchem5.1.2/config/preferences.
 MEM_TOTAL  4000 
Core orbitals will be frozen
Input Ideriv = 1
Curr. Ideriv = -1
Max.  Ideriv = 1

Checking the input file for inconsistencies... 	...done.

--------------------------------------------------------------
User input:
--------------------------------------------------------------
$molecule
0 1
--
0 1
Si     2.206519773     0.028225580     0.000619108
H     1.719687849     0.752119435    -1.196193955
H     1.720552923     0.738931435     1.205678115
H     1.620645936    -1.331752276    -0.006589851
C     4.082202750    -0.060760672    -0.000507565
H     4.444822828    -0.592187257     0.877602138
H     4.444224422    -0.582384122    -0.884721181
H     4.516939396     0.937214734     0.004896367
--
0 1
Si    -3.652421463    -0.011679321     0.002242218
H    -4.190831467     0.670380606    -1.197030225
H    -4.180474227     0.673322474     1.204436103
H    -4.147242229    -1.407559165     0.006077578
C    -1.774708207     0.022834420    -0.005882023
H    -1.375452780    -0.477956076     0.874506109
H    -1.382954579    -0.480325161    -0.888286641
H    -1.407741538     1.047920207    -0.008842263
$end

$rem
BASIS = aug-cc-pVTZ
JOB_TYPE  =  BSSE
METHOD  =  MP2
SCF_MAX_CYCLES  =  200
$end

--------------------------------------------------------------
 ----------------------------------------------------------------
             Standard Nuclear Orientation (Angstroms)
    I     Atom           X                Y                Z
 ----------------------------------------------------------------
    1      Si     -2.2952291976    -0.0328012521     0.0017647621
    2      H      -1.8073683938    -0.7835671873    -1.1779519368
    3      H      -1.8079907123    -0.7144955889     1.2229630636
    4      H      -1.7115380945     1.3275767924    -0.0371731751
    5      C      -4.1710525942     0.0531318937    -0.0011561528
    6      H      -4.5344280437     0.6042659310     0.8644036327
    7      H      -4.5340075512     0.5534593526    -0.8972145027
    8      H      -4.6041874934    -0.9451422316     0.0275317327
    9      Si      3.5636406449     0.0165098328     0.0015966756
   10      H       4.1030120970    -0.6924082129    -1.1815597427
   11      H       4.0929234499    -0.6394867312     1.2193263411
   12      H       4.0562224272     1.4128913241    -0.0271219204
   13      C       1.6859842771    -0.0211894928    -0.0054459484
   14      H       1.2860229116     0.4993111582     0.8631098980
   15      H       1.2933272144     0.4606736167    -0.8992617871
   16      H       1.3206618290    -1.0466527586     0.0155008757
 ----------------------------------------------------------------
 Molecular Point Group                 C1    NOp =  1
 Largest Abelian Subgroup              C1    NOp =  1
 Nuclear Repulsion Energy =   190.0452570136 hartrees
 There are       26 alpha and       26 beta electrons
 Requested basis set is aug-cc-pVTZ
 There are 168 shells and 468 basis functions

 Total QAlloc Memory Limit   4000 MB
 Mega-Array Size       188 MB
 MEM_STATIC part       192 MB
 A cutoff of  1.0D-08 yielded  11153 shell pairs
 There are     82263 function pairs (    104058 Cartesian)
 
 -------------------------------------------------------
 OpenMP Integral Computing Module                       
 Release: version 1.0, May 2013, Q-Chem Inc. Pittsburgh 
 -------------------------------------------------------
 Integral Job Info:
 Integral job number is                      11
 Integral operator is                         1
 short-range coefficients                     0
 long-range coefficients              100000000
 Omega coefficients                           0
 if combine SR and LR in K                    0
 Integral screening is                        0
 Integral computing path is                   2
 max size of driver memory is            800000
 size of driver memory is                776718
 size of scratch memory is             29531563
 max col of scratch BK array              10000
 max len of scratch array in speh3          662
 max len of scratch index in speh4           32
 max int batch size is                      520
 min int batch size is                       52
 fixed nKL is                                31
 max L of basis functions is                  3
 order of int derivative is                   0
 number of shells is                        168
 number of basis is                         528
 number of cartesian basis is               528
 number of contracted shell pairs         11153
 number of primitive shell pairs          30141
 maxK2 (contraction) of shell pair          169
 max number of K2 of shell pair               1
 max number of CS2 of shell pair           2122
 max number of PS2 of shell pair           2886
 mem total for path MDJ                  771804
 -------------------------------------------------------
 Smallest overlap matrix eigenvalue = 1.13E-05

 Q-Chem warning in module stvman/mkSTV.C, line 306:

 Overlap eigenvalue is smaller than square root of threshold
 Use THRESH >= 12 to get rid of this warning


 Scale SEOQF with 1.000000e-01/1.000000e-01/1.000000e-01

 Standard Electronic Orientation quadrupole field applied
 Nucleus-field energy     =     0.0000000175 hartrees
 Guess MOs from converged MOs on fragments

-----------------------------------------------------------------
 SCF on fragment 1 out of 2
/home/qwang/software/qchem5.1.2/exe/qcprog.exe /scratch/xuedong/qchem23299/Frg1.input /scratch/xuedong/qchem23299/Frg1/ > /dev/null 
 SCF on fragment 2 out of 2
/home/qwang/software/qchem5.1.2/exe/qcprog.exe /scratch/xuedong/qchem23299/Frg2.input /scratch/xuedong/qchem23299/Frg2/ > /dev/null 
-----------------------------------------------------------------
 Done with SCF on isolated fragments
-----------------------------------------------------------------

 User-specified occupied guess orbitals will be used
 A restricted Hartree-Fock SCF calculation will be
 performed using Pulay DIIS extrapolation
 SCF converges when DIIS error is below 1.0E-05
 using 6 threads for integral computing
 -------------------------------------------------------
 OpenMP Integral computing Module                
 Release: version 1.0, May 2013, Q-Chem Inc. Pittsburgh 
 -------------------------------------------------------
 ---------------------------------------
  Cycle       Energy         DIIS Error
 ---------------------------------------
    1    -660.6457484555      6.92E-05
    2    -660.6459133578      1.00E-05
    3    -660.6459167827      7.97E-06 Convergence criterion met
 ---------------------------------------
 SCF time:  CPU 285.24 s  wall 47.56 s

-----------------------------------------------------------------
 SCF CP correction for fragment 1 out of 2
/home/qwang/software/qchem5.1.2/exe/qcprog.exe /scratch/xuedong/qchem23299/Frg1.input /scratch/xuedong/qchem23299/Frg1BSSE/ > /dev/null 
 SCF CP correction for fragment 2 out of 2
/home/qwang/software/qchem5.1.2/exe/qcprog.exe /scratch/xuedong/qchem23299/Frg2.input /scratch/xuedong/qchem23299/Frg2BSSE/ > /dev/null 
-----------------------------------------------------------------
 Done with counterpoise correction on fragments
-----------------------------------------------------------------

 SCF   energy in the final basis set = -660.64591678
 Total energy in the final basis set = -660.64591678
 
 Components of the MP2 correlation energy:
        aaaa  correlation energy =        -0.0561515911 au
        abab  correlation energy =        -0.5370593629 au
        bbbb  correlation energy =        -0.0561515911 au
        non-Brillouin singles    =        -0.0000000000 au

 Total  MP2   correlation energy =                    -0.64936255 au
        MP2         total energy =                  -661.29527933 au
 
 --------------------------------------------------------------
 
                    Orbital Energies (a.u.)
 --------------------------------------------------------------
 
 Alpha MOs
 -- Occupied --
-68.767 -68.764 -11.209 -11.206  -6.116  -6.113  -4.222  -4.222
 -4.221  -4.219  -4.219  -4.219  -0.951  -0.948  -0.702  -0.696
 -0.566  -0.566  -0.563  -0.563  -0.470  -0.470  -0.467  -0.467
 -0.460  -0.449
 -- Virtual --
  0.027   0.035   0.041   0.041   0.045   0.053   0.053   0.064
  0.065   0.066   0.077   0.077   0.084   0.085   0.091   0.108
  0.108   0.113   0.129   0.137   0.137   0.141   0.147   0.148
  0.148   0.155   0.165   0.165   0.167   0.168   0.174   0.184
  0.185   0.213   0.214   0.214   0.223   0.230   0.230   0.245
  0.246   0.247   0.255   0.264   0.264   0.271   0.285   0.292
  0.293   0.301   0.302   0.322   0.322   0.325   0.325   0.338
  0.338   0.340   0.344   0.345   0.347   0.353   0.362   0.362
  0.367   0.374   0.376   0.378   0.385   0.385   0.401   0.411
  0.414   0.417   0.424   0.426   0.434   0.438   0.439   0.460
  0.461   0.465   0.472   0.472   0.480   0.482   0.483   0.497
  0.498   0.510   0.515   0.518   0.521   0.538   0.544   0.549
  0.550   0.554   0.579   0.598   0.608   0.610   0.610   0.631
  0.632   0.640   0.660   0.661   0.663   0.670   0.672   0.674
  0.679   0.680   0.691   0.695   0.703   0.703   0.715   0.715
  0.720   0.750   0.753   0.761   0.765   0.772   0.778   0.823
  0.830   0.831   0.843   0.851   0.852   0.866   0.887   0.887
  0.895   0.895   0.914   0.915   0.919   0.931   0.939   0.952
  0.954   0.957   0.965   0.967   0.970   0.976   1.003   1.005
  1.014   1.015   1.027   1.043   1.045   1.046   1.059   1.061
  1.069   1.079   1.080   1.084   1.093   1.096   1.121   1.130
  1.132   1.138   1.139   1.151   1.152   1.159   1.160   1.161
  1.181   1.193   1.195   1.207   1.208   1.211   1.223   1.235
  1.236   1.252   1.254   1.277   1.279   1.280   1.281   1.286
  1.290   1.298   1.301   1.324   1.327   1.341   1.344   1.347
  1.361   1.364   1.371   1.379   1.398   1.402   1.404   1.408
  1.410   1.424   1.426   1.434   1.440   1.443   1.444   1.451
  1.454   1.476   1.488   1.510   1.516   1.517   1.522   1.524
  1.551   1.555   1.557   1.561   1.575   1.611   1.622   1.626
  1.658   1.663   1.665   1.674   1.678   1.679   1.681   1.685
  1.686   1.736   1.738   1.771   1.789   1.821   1.826   1.827
  1.843   1.844   1.874   1.874   1.875   1.912   1.912   1.948
  1.949   1.966   2.011   2.013   2.015   2.023   2.024   2.037
  2.038   2.053   2.067   2.070   2.082   2.105   2.131   2.134
  2.148   2.149   2.161   2.168   2.170   2.191   2.193   2.205
  2.245   2.263   2.284   2.284   2.287   2.288   2.333   2.372
  2.373   2.378   2.399   2.401   2.750   2.787   3.094   3.098
  3.122   3.127   3.130   3.193   3.332   3.348   3.412   3.413
  3.427   3.427   3.466   3.523   3.563   3.564   3.575   3.577
  3.612   3.616   3.643   3.659   3.660   3.686   3.688   3.714
  3.718   3.728   3.757   3.758   3.828   3.829   3.868   3.874
  3.944   3.945   3.957   3.959   3.993   4.008   4.022   4.052
  4.052   4.055   4.061   4.065   4.085   4.110   4.114   4.115
  4.118   4.130   4.135   4.135   4.144   4.149   4.158   4.162
  4.183   4.201   4.210   4.210   4.217   4.218   4.225   4.226
  4.238   4.266   4.271   4.282   4.334   4.337   4.338   4.338
  4.349   4.351   4.363   4.394   4.504   4.505   4.514   4.525
  4.526   4.530   4.541   4.580   4.587   4.606   4.607   4.608
  4.612   4.616   4.767   4.769   4.782   4.783   4.794   4.811
  4.812   4.813   4.816   4.817   4.848   4.849   4.889   4.890
  4.973   4.999   5.004   5.007   5.020   5.020   5.042   5.043
  5.088   5.089   5.163   5.163   5.175   5.176   5.243   5.245
  5.254   5.255   5.348   5.399   5.562   5.575   5.601   5.601
  5.611   5.611   5.624   5.656   5.946   5.967   6.105   6.106
  6.127   6.130   6.693   6.694   6.716   6.717   9.182   9.229
 17.076  17.568
 --------------------------------------------------------------
 
          Ground-State Mulliken Net Atomic Charges

     Atom                 Charge (a.u.)
  ----------------------------------------
      1 Si                    1.303443
      2 H                    -0.337001
      3 H                    -0.336640
      4 H                    -0.336850
      5 C                    -1.148746
      6 H                     0.277645
      7 H                     0.277513
      8 H                     0.274188
      9 Si                    1.295129
     10 H                    -0.399844
     11 H                    -0.399774
     12 H                    -0.398117
     13 C                    -1.115436
     14 H                     0.346817
     15 H                     0.346041
     16 H                     0.351621
  ----------------------------------------
  Sum of atomic charges =    -0.000011

 -----------------------------------------------------------------
                    Cartesian Multipole Moments
 -----------------------------------------------------------------
    Charge (ESU x 10^10)
                -0.0001
    Dipole Moment (Debye)
         X      -1.4168      Y       0.0209      Z      -0.0043
       Tot       1.4170
    Quadrupole Moments (Debye-Ang)
        XX     -47.5453     XY      -0.1244     YY     -46.5543
        XZ      -0.0062     YZ      -0.0001     ZZ     -46.5557
    Octopole Moments (Debye-Ang^2)
       XXX     -40.8206    XXY      -0.1630    XYY      -6.5729
       YYY      -3.6224    XXZ      -0.0061    XYZ      -0.0053
       YYZ       0.2786    XZZ      -6.4980    YZZ       3.9713
       ZZZ      -0.3506
    Hexadecapole Moments (Debye-Ang^3)
      XXXX   -2794.4943   XXXY       1.7502   XXYY    -477.1595
      XYYY      -1.5953   YYYY    -114.4863   XXXZ       0.0110
      XXYZ      -0.0782   XYYZ      -0.1607   YYYZ       0.0019
      XXZZ    -478.5376   XYZZ      -0.9642   YYZZ     -38.0985
      XZZZ       0.0795   YZZZ      -0.0028   ZZZZ    -114.1713
 -----------------------------------------------------------------

 ---------------------------------------------------------------------
 *                     Fragment's binding energy                     *
 ---------------------------------------------------------------------
    Fragment           E(TOTAL)         E(CP-CORR)           DE(BSSE)
 ---------------------------------------------------------------------
           1    -330.6467438871    -330.6470099082       0.0002660210
           2    -330.6467450887    -330.6469404041       0.0001953153
     Complex    -661.2952793278
 ---------------------------------------------------------------------
  DE, kJ/mol      -4.7006248859      -3.4893718937
 ---------------------------------------------------------------------

Archival summary:
1\1\mm2.localdomain\SP\MP2\BasisUnspecified\i2212\xuedong\TueJul212:32:102019TueJul212:32:102019\0\\#,MP2,BasisUnspecified,\\0,1\Si\H,1,1.48082\H,1,1.48101,2,108.355\H,1,1.48102,2,108.352,3,117.378,0\C,1,1.87779,2,110.59,3,-121.313,0\H,5,1.08857,1,110.822,2,-179.993,0\H,5,1.08857,1,110.817,2,-59.9922,0\H,5,1.08857,1,110.817,2,60.0054,0\H,2,3.23758,1,97.0429,3,-74.4963,0\C,9,1.08871,2,103.922,1,71.6716,0\H,10,1.0887,9,108.112,2,35.5851,0\H,10,1.08879,9,108.16,2,-81.3099,0\Si,10,1.87805,9,110.776,2,157.141,0\H,13,1.48099,10,110.579,9,60.0049,0\H,13,1.48099,10,110.572,9,-59.9939,0\H,13,1.48099,10,110.58,9,-179.993,0\\HF=-660.645917\MP2=-661.295279\\@

 Total job time:  1335.38s(wall), 2716.87s(cpu) 
 Tue Jul  2 12:32:10 2019

        *************************************************************
        *                                                           *
        *  Thank you very much for using Q-Chem.  Have a nice day.  *
        *                                                           *
        *************************************************************


