
Running Job 1 of 3 ../qm_inp/SiH3CH3_SiH3CH3_con3.105.qcinp
qchem ../qm_inp/SiH3CH3_SiH3CH3_con3.105.qcinp_34626.0 /scratch/xuedong/qchem34626/ 1
/home/qwang/software/qchem5.1.2/exe/qcprog.exe_s ../qm_inp/SiH3CH3_SiH3CH3_con3.105.qcinp_34626.0 /scratch/xuedong/qchem34626/
Check license passed

                  Welcome to Q-Chem
     A Quantum Leap Into The Future Of Chemistry


 Q-Chem 5.1, Q-Chem, Inc., Pleasanton, CA (2018)

 Yihan Shao,  Zhengting Gan,  E. Epifanovsky,  A. T. B. Gilbert,  M. Wormit,  
 J. Kussmann,  A. W. Lange,  A. Behn,  Jia Deng,  Xintian Feng,  D. Ghosh,  
 M. Goldey,  P. R. Horn,  L. D. Jacobson,  I. Kaliman,  T. Kus,  A. Landau,  
 Jie Liu,  E. I. Proynov,  R. M. Richard,  R. P. Steele,  E. J. Sundstrom,  
 H. L. Woodcock III,  P. M. Zimmerman,  D. Zuev,  B. Albrecht,  E. Alguire,  
 S. A. Baeppler,  D. Barton,  Z. Benda,  Y. A. Bernard,  E. J. Berquist,  
 K. B. Bravaya,  H. Burton,  D. Casanova,  Chun-Min Chang,  Yunqing Chen,  
 A. Chien,  K. D. Closser,  M. P. Coons,  S. Coriani,  S. Dasgupta,  
 A. L. Dempwolff,  M. Diedenhofen,  Hainam Do,  R. G. Edgar,  Po-Tung Fang,  
 S. Faraji,  S. Fatehi,  Qingguo Feng,  K. D. Fenk,  J. Fosso-Tande,  
 J. Gayvert,  Qinghui Ge,  A. Ghysels,  G. Gidofalvi,  J. Gomes,  
 J. Gonthier,  A. Gunina,  D. Hait,  M. W. D. Hanson-Heine,  
 P. H. P. Harbach,  A. W. Hauser,  J. E. Herr,  E. G. Hohenstein,  
 Z. C. Holden,  Kerwin Hui,  B. C. Huynh,  T.-C. Jagau,  Hyunjun Ji,  
 B. Kaduk,  K. Khistyaev,  Jaehoon Kim,  P. Klunzinger,  K. Koh,  
 D. Kosenkov,  L. Koulias,  T. Kowalczyk,  C. M. Krauter,  A. Kunitsa,  
 Ka Un Lao,  A. Laurent,  K. V. Lawler,  Joonho Lee,  D. Lefrancois,  
 S. Lehtola,  D. S. Levine,  Yi-Pei Li,  You-Sheng Lin,  Fenglai Liu,  
 E. Livshits,  A. Luenser,  P. Manohar,  E. Mansoor,  S. F. Manzer,  
 Shan-Ping Mao,  Yuezhi Mao,  N. Mardirossian,  A. V. Marenich,  
 T. Markovich,  L. A. Martinez-Martinez,  S. A. Maurer,  N. J. Mayhall,  
 S. C. McKenzie,  J.-M. Mewes,  A. F. Morrison,  J. W. Mullinax,  K. Nanda,  
 T. S. Nguyen-Beck,  R. Olivares-Amaya,  J. A. Parkhill,  T. M. Perrine,  
 F. Plasser,  P. Pokhilko,  S. Prager,  A. Prociuk,  E. Ramos,  D. R. Rehn,  
 F. Rob,  M. Schneider,  N. Sergueev,  S. M. Sharada,  S. Sharma,  
 D. W. Small,  T. Stauch,  T. Stein,  Yu-Chuan Su,  A. J. W. Thom,  
 A. Tkatchenko,  T. Tsuchimochi,  N. M. Tubman,  L. Vogt,  M. L. Vidal,  
 O. Vydrov,  M. A. Watson,  J. Wenzel,  M. de Wergifosse,  T. A. Wesolowski,  
 A. White,  J. Witte,  A. Yamada,  Jun Yang,  K. Yao,  S. Yeganeh,  
 S. R. Yost,  Zhi-Qiang You,  A. Zech,  Igor Ying Zhang,  Xing Zhang,  
 Yan Zhao,  Ying Zhu,  B. R. Brooks,  G. K. L. Chan,  C. J. Cramer,  
 M. S. Gordon,  W. J. Hehre,  A. Klamt,  M. W. Schmidt,  C. D. Sherrill,  
 D. G. Truhlar,  A. Aspuru-Guzik,  R. Baer,  A. T. Bell,  N. A. Besley,  
 Jeng-Da Chai,  A. E. DePrince, III,  R. A. DiStasio Jr.,  A. Dreuw,  
 B. D. Dunietz,  T. R. Furlani,  Chao-Ping Hsu,  Yousung Jung,  Jing Kong,  
 D. S. Lambrecht,  WanZhen Liang,  C. Ochsenfeld,  V. A. Rassolov,  
 L. V. Slipchenko,  J. E. Subotnik,  T. Van Voorhis,  J. M. Herbert,  
 A. I. Krylov,  P. M. W. Gill,  M. Head-Gordon

 Contributors to earlier versions of Q-Chem not listed above: 
 R. D. Adamson,  B. Austin,  J. Baker,  G. J. O. Beran,  K. Brandhorst,  
 S. T. Brown,  E. F. C. Byrd,  A. K. Chakraborty,  C.-L. Cheng,  
 Siu Hung Chien,  D. M. Chipman,  D. L. Crittenden,  H. Dachsel,  
 R. J. Doerksen,  A. D. Dutoi,  L. Fusti-Molnar,  W. A. Goddard III,  
 A. Golubeva-Zadorozhnaya,  S. R. Gwaltney,  G. Hawkins,  A. Heyden,  
 S. Hirata,  G. Kedziora,  F. J. Keil,  C. Kelley,  Jihan Kim,  R. A. King,  
 R. Z. Khaliullin,  P. P. Korambath,  W. Kurlancheek,  A. M. Lee,  M. S. Lee,  
 S. V. Levchenko,  Ching Yeh Lin,  D. Liotard,  R. C. Lochan,  I. Lotan,  
 P. E. Maslen,  N. Nair,  D. P. O'Neill,  D. Neuhauser,  E. Neuscamman,  
 C. M. Oana,  R. Olson,  B. Peters,  R. Peverati,  P. A. Pieniazek,  
 Y. M. Rhee,  J. Ritchie,  M. A. Rohrdanz,  E. Rosta,  N. J. Russ,  
 H. F. Schaefer III,  N. E. Schultz,  N. Shenvi,  A. C. Simmonett,  A. Sodt,  
 D. Stuck,  K. S. Thanthiriwatte,  V. Vanovschi,  Tao Wang,  A. Warshel,  
 C. F. Williams,  Q. Wu,  X. Xu,  W. Zhang

 Please cite Q-Chem as follows:
 Y. Shao et al., Mol. Phys. 113, 184-215 (2015)
 DOI: 10.1080/00268976.2014.952696

 Q-Chem 5.1.2 for Intel X86 EM64T Linux

 Parts of Q-Chem use Armadillo 8.300.2 (Tropical Shenanigans).
 http://arma.sourceforge.net/

 Q-Chem begins on Wed Jul  3 18:30:19 2019  

Host: 
0

     Scratch files written to /scratch/xuedong/qchem34626//
 Dec218 |scratch|qcdevops|jenkins|workspace|build_RNUM 6581   
Processing $rem in /home/qwang/software/qchem5.1.2/config/preferences.
 MEM_TOTAL  4000 
Core orbitals will be frozen
Input Ideriv = 1
Curr. Ideriv = -1
Max.  Ideriv = 1

Checking the input file for inconsistencies... 	...done.

--------------------------------------------------------------
User input:
--------------------------------------------------------------
$molecule
0 1
Si     3.762272567     0.100944777     0.006072646
H     3.981291986     1.564414477     0.064186564
H     4.389924271    -0.416429655    -1.231422106
H     4.439607953    -0.519141536     1.167849490
C     1.925645521    -0.291305561     0.027271718
H     1.759401550    -1.366486120    -0.015128601
H     1.421772543     0.162315456    -0.824405717
H     1.458679937     0.087942478     0.934592371
Si    -3.907140031    -0.117635489     0.010079163
H    -4.136833352    -1.396538126    -0.700402598
H    -4.710592472     0.935320271    -0.652331018
H    -4.387581337    -0.264631914     1.403160260
C    -2.083542944     0.330823852    -0.013915175
H    -1.909161199     1.270643121     0.507335923
H    -1.724878355     0.440041668    -1.036004450
H    -1.487174644    -0.440077660     0.470757087
$end

$rem
BASIS = aug-cc-pVTZ
JOB_TYPE  =  SP
METHOD  =  MP2
SCF_MAX_CYCLES  =  200
$end

--------------------------------------------------------------
 ----------------------------------------------------------------
             Standard Nuclear Orientation (Angstroms)
    I     Atom           X                Y                Z
 ----------------------------------------------------------------
    1      Si      3.8375432548     0.0713198652    -0.0001425562
    2      H       4.0674994602     1.5273115558     0.1423307272
    3      H       4.4604341775    -0.3781769685    -1.2662293307
    4      H       4.5110756989    -0.6199722425     1.1230159208
    5      C       1.9980610615    -0.3079077330     0.0004264281
    6      H       1.8237824236    -1.3775719675    -0.1039453174
    7      H       1.4969690577     0.1979687879    -0.8229873244
    8      H       1.5345855873     0.0216232861     0.9287132864
    9      Si     -3.8332798803    -0.0904064117     0.0000149665
   10      H      -4.0730037236    -1.3243018575    -0.7830366391
   11      H      -4.6293425859     1.0050422276    -0.5994142228
   12      H      -4.3138015031    -0.3142434100     1.3828029866
   13      C      -2.0064105981     0.3451925575    -0.0000761443
   14      H      -1.8246585571     1.2519459120     0.5744989233
   15      H      -1.6476770639     0.5107395566    -1.0145413962
   16      H      -1.4154529947    -0.4568621761     0.4384769394
 ----------------------------------------------------------------
 Molecular Point Group                 C1    NOp =  1
 Largest Abelian Subgroup              C1    NOp =  1
 Nuclear Repulsion Energy =   183.8410763822 hartrees
 There are       26 alpha and       26 beta electrons
 Requested basis set is aug-cc-pVTZ
 There are 168 shells and 468 basis functions

 Total QAlloc Memory Limit   4000 MB
 Mega-Array Size       188 MB
 MEM_STATIC part       192 MB
 A cutoff of  1.0D-08 yielded  11109 shell pairs
 There are     82537 function pairs (    104583 Cartesian)
 
 -------------------------------------------------------
 OpenMP Integral Computing Module                       
 Release: version 1.0, May 2013, Q-Chem Inc. Pittsburgh 
 -------------------------------------------------------
 Integral Job Info:
 Integral job number is                      11
 Integral operator is                         1
 short-range coefficients                     0
 long-range coefficients              100000000
 Omega coefficients                           0
 if combine SR and LR in K                    0
 Integral screening is                        0
 Integral computing path is                   2
 max size of driver memory is            800000
 size of driver memory is                776718
 size of scratch memory is             29531563
 max col of scratch BK array              10000
 max len of scratch array in speh3          662
 max len of scratch index in speh4           32
 max int batch size is                      520
 min int batch size is                       52
 fixed nKL is                                31
 max L of basis functions is                  3
 order of int derivative is                   0
 number of shells is                        168
 number of basis is                         528
 number of cartesian basis is               528
 number of contracted shell pairs         11109
 number of primitive shell pairs          29503
 maxK2 (contraction) of shell pair          169
 max number of K2 of shell pair               1
 max number of CS2 of shell pair           2125
 max number of PS2 of shell pair           2769
 mem total for path MDJ                  773676
 -------------------------------------------------------
 Smallest overlap matrix eigenvalue = 1.17E-05

 Q-Chem warning in module stvman/mkSTV.C, line 306:

 Overlap eigenvalue is smaller than square root of threshold
 Use THRESH >= 12 to get rid of this warning


 Scale SEOQF with 1.000000e-01/1.000000e-01/1.000000e-01

 Standard Electronic Orientation quadrupole field applied
 Nucleus-field energy     =     0.0000000209 hartrees
 Guess from superposition of atomic densities
 Warning:  Energy on first SCF cycle will be non-variational
 SAD guess density has 52.000000 electrons

 -----------------------------------------------------------------------
  General SCF calculation program by
  Eric Jon Sundstrom, Paul Horn, Yuezhi Mao, Dmitri Zuev, Alec White,
  David Stuck, Shaama M.S., Shane Yost, Joonho Lee, David Small,
  Daniel Levine, Susi Lehtola, Hugh Burton, Evgeny Epifanovsky
 -----------------------------------------------------------------------
 Hartree-Fock
 using 6 threads for integral computing
 -------------------------------------------------------
 OpenMP Integral computing Module                
 Release: version 1.0, May 2013, Q-Chem Inc. Pittsburgh 
 -------------------------------------------------------
 A restricted SCF calculation will be
 performed using DIIS
 SCF converges when DIIS error is below 1.0e-05
 ---------------------------------------
  Cycle       Energy         DIIS error
 ---------------------------------------
    1    -660.9493885728      1.47e-02  
    2    -660.5894670771      1.11e-03  
    3    -660.6401859552      3.29e-04  
    4    -660.6451486081      1.34e-04  
    5    -660.6458824919      1.68e-05  
    6    -660.6459049805      3.46e-06  Convergence criterion met
 ---------------------------------------
 SCF time:   CPU 438.94s  wall 73.00s 
 SCF   energy in the final basis set =     -660.6459049805
 Total energy in the final basis set =     -660.6459049805
 
 Components of the MP2 correlation energy:
        aaaa  correlation energy =        -0.0559915553 au
        abab  correlation energy =        -0.5366512416 au
        bbbb  correlation energy =        -0.0559915553 au
        non-Brillouin singles    =        -0.0000000000 au

 Total  MP2   correlation energy =                    -0.64863435 au
        MP2         total energy =                  -661.29453933 au
 
 --------------------------------------------------------------
 
                    Orbital Energies (a.u.)
 --------------------------------------------------------------
 
 Alpha MOs
 -- Occupied --
-68.767 -68.767 -11.210 -11.210  -6.116  -6.115  -4.222  -4.222
 -4.222  -4.222  -4.221  -4.221  -0.952  -0.950  -0.701  -0.699
 -0.568  -0.567  -0.566  -0.565  -0.470  -0.470  -0.470  -0.469
 -0.460  -0.452
 -- Virtual --
  0.027   0.037   0.039   0.040   0.044   0.055   0.057   0.060
  0.064   0.068   0.071   0.073   0.078   0.086   0.087   0.098
  0.104   0.111   0.127   0.132   0.138   0.143   0.143   0.146
  0.147   0.158   0.160   0.161   0.164   0.165   0.172   0.180
  0.187   0.197   0.202   0.216   0.218   0.228   0.232   0.236
  0.244   0.247   0.251   0.256   0.258   0.267   0.283   0.289
  0.292   0.293   0.296   0.305   0.314   0.322   0.325   0.326
  0.332   0.334   0.334   0.338   0.341   0.346   0.350   0.352
  0.357   0.362   0.369   0.378   0.379   0.388   0.389   0.399
  0.406   0.426   0.430   0.433   0.439   0.441   0.444   0.449
  0.461   0.464   0.475   0.478   0.479   0.483   0.487   0.491
  0.498   0.505   0.510   0.515   0.517   0.519   0.531   0.543
  0.557   0.572   0.578   0.589   0.601   0.613   0.622   0.628
  0.639   0.647   0.650   0.654   0.656   0.658   0.660   0.661
  0.672   0.689   0.690   0.695   0.698   0.701   0.714   0.715
  0.717   0.731   0.740   0.761   0.781   0.788   0.801   0.814
  0.817   0.825   0.840   0.843   0.845   0.854   0.880   0.890
  0.895   0.903   0.910   0.917   0.924   0.929   0.936   0.941
  0.943   0.962   0.968   0.973   0.975   0.988   0.992   0.999
  1.011   1.015   1.017   1.024   1.034   1.039   1.048   1.056
  1.059   1.065   1.068   1.078   1.086   1.094   1.103   1.113
  1.116   1.122   1.137   1.141   1.144   1.148   1.162   1.167
  1.170   1.174   1.184   1.186   1.197   1.202   1.210   1.215
  1.225   1.231   1.248   1.249   1.260   1.263   1.274   1.283
  1.294   1.298   1.304   1.317   1.318   1.324   1.332   1.342
  1.343   1.351   1.371   1.378   1.383   1.390   1.397   1.403
  1.407   1.423   1.428   1.435   1.436   1.441   1.443   1.449
  1.457   1.461   1.464   1.474   1.486   1.491   1.504   1.518
  1.529   1.537   1.540   1.557   1.566   1.574   1.612   1.632
  1.637   1.648   1.650   1.662   1.672   1.675   1.680   1.703
  1.708   1.724   1.727   1.750   1.765   1.811   1.813   1.821
  1.832   1.848   1.855   1.869   1.880   1.898   1.915   1.944
  1.971   1.976   2.003   2.014   2.021   2.024   2.027   2.035
  2.043   2.045   2.056   2.066   2.071   2.079   2.112   2.137
  2.138   2.146   2.148   2.158   2.161   2.171   2.178   2.201
  2.230   2.232   2.279   2.280   2.282   2.284   2.336   2.353
  2.379   2.385   2.399   2.409   2.767   2.783   3.089   3.095
  3.103   3.111   3.123   3.172   3.324   3.337   3.409   3.419
  3.425   3.439   3.443   3.462   3.563   3.566   3.571   3.577
  3.613   3.616   3.647   3.660   3.677   3.687   3.688   3.700
  3.712   3.717   3.720   3.725   3.839   3.840   3.859   3.913
  3.941   3.950   3.958   3.968   3.992   3.992   4.012   4.032
  4.046   4.055   4.061   4.065   4.092   4.101   4.105   4.113
  4.125   4.129   4.131   4.132   4.135   4.139   4.148   4.159
  4.175   4.195   4.202   4.211   4.213   4.215   4.216   4.221
  4.229   4.233   4.256   4.285   4.331   4.334   4.336   4.336
  4.337   4.344   4.366   4.374   4.494   4.503   4.505   4.511
  4.524   4.532   4.533   4.559   4.592   4.598   4.601   4.607
  4.612   4.613   4.765   4.766   4.778   4.780   4.787   4.788
  4.802   4.806   4.812   4.816   4.847   4.866   4.879   4.884
  4.891   5.004   5.006   5.011   5.016   5.026   5.037   5.046
  5.048   5.078   5.163   5.171   5.175   5.178   5.237   5.241
  5.251   5.254   5.354   5.370   5.570   5.580   5.602   5.608
  5.608   5.615   5.643   5.653   5.933   5.962   6.108   6.124
  6.131   6.137   6.700   6.704   6.714   6.727   9.080   9.169
 17.259  17.446
 --------------------------------------------------------------
 
          Ground-State Mulliken Net Atomic Charges

     Atom                 Charge (a.u.)
  ----------------------------------------
      1 Si                    1.292601
      2 H                    -0.377944
      3 H                    -0.392126
      4 H                    -0.390689
      5 C                    -1.087749
      6 H                     0.316521
      7 H                     0.329840
      8 H                     0.310321
      9 Si                    1.313504
     10 H                    -0.379300
     11 H                    -0.393202
     12 H                    -0.390625
     13 C                    -1.068872
     14 H                     0.305955
     15 H                     0.298523
     16 H                     0.313243
  ----------------------------------------
  Sum of atomic charges =    -0.000001

 -----------------------------------------------------------------
                    Cartesian Multipole Moments
 -----------------------------------------------------------------
    Charge (ESU x 10^10)
                -0.0000
    Dipole Moment (Debye)
         X       0.0005      Y       0.0230      Z      -0.0003
       Tot       0.0230
    Quadrupole Moments (Debye-Ang)
        XX     -56.1556     XY      -1.0648     YY     -46.5671
        XZ      -0.0032     YZ       0.0052     ZZ     -46.5667
    Octopole Moments (Debye-Ang^2)
       XXX       0.0162    XXY       0.0943    XYY       0.3472
       YYY      -1.8723    XXZ       0.0732    XYZ      -0.3065
       YYZ       1.2185    XZZ      -0.4847    YZZ       2.3327
       ZZZ      -1.2944
    Hexadecapole Moments (Debye-Ang^3)
      XXXX   -3516.0228   XXXY       5.3897   XXYY    -594.5574
      XYYY     -16.2986   YYYY    -125.1061   XXXZ      -1.2131
      XXYZ       3.4130   XYYZ      -7.4333   YYYZ       0.5494
      XXZZ    -600.4660   XYZZ       0.1605   YYZZ     -40.1435
      XZZZ       7.7354   YZZZ      -0.1798   ZZZZ    -114.1612
 -----------------------------------------------------------------
Archival summary:
1\1\mm2.localdomain\SP\MP2\BasisUnspecified\i2212\xuedong\WedJul318:37:542019WedJul318:37:542019\0\\#,MP2,BasisUnspecified,\\0,1\Si\H,1,1.48089\H,1,1.48091,2,108.381\H,1,1.48092,2,108.378,3,117.417,0\C,1,1.87808,2,110.567,3,-121.294,0\H,5,1.08851,1,110.927,2,-179.937,0\H,5,1.08869,1,110.845,2,-59.996,0\H,5,1.08875,1,110.826,2,59.9946,0\H,6,3.02853,5,118.531,1,-172.484,0\C,9,1.08863,6,103.23,5,-90.0885,0\H,10,1.08858,9,107.96,6,52.1683,0\H,10,1.08878,9,108.118,6,-64.5331,0\Si,10,1.87817,9,110.862,6,173.829,0\H,13,1.48088,10,110.546,9,60.0552,0\H,13,1.48088,10,110.544,9,-179.931,0\H,13,1.48091,10,110.522,9,-59.9389,0\\HF=-660.645905\MP2=-661.294539\\@

 Total job time:  455.01s(wall), 2696.95s(cpu) 
 Wed Jul  3 18:37:54 2019

        *************************************************************
        *                                                           *
        *  Thank you very much for using Q-Chem.  Have a nice day.  *
        *                                                           *
        *************************************************************



Running Job 2 of 3 ../qm_inp/SiH3CH3_SiH3CH3_con3.105.qcinp
qchem ../qm_inp/SiH3CH3_SiH3CH3_con3.105.qcinp_34626.1 /scratch/xuedong/qchem34626/ 1
/home/qwang/software/qchem5.1.2/exe/qcprog.exe_s ../qm_inp/SiH3CH3_SiH3CH3_con3.105.qcinp_34626.1 /scratch/xuedong/qchem34626/
Check license passed

                  Welcome to Q-Chem
     A Quantum Leap Into The Future Of Chemistry


 Q-Chem 5.1, Q-Chem, Inc., Pleasanton, CA (2018)

 Yihan Shao,  Zhengting Gan,  E. Epifanovsky,  A. T. B. Gilbert,  M. Wormit,  
 J. Kussmann,  A. W. Lange,  A. Behn,  Jia Deng,  Xintian Feng,  D. Ghosh,  
 M. Goldey,  P. R. Horn,  L. D. Jacobson,  I. Kaliman,  T. Kus,  A. Landau,  
 Jie Liu,  E. I. Proynov,  R. M. Richard,  R. P. Steele,  E. J. Sundstrom,  
 H. L. Woodcock III,  P. M. Zimmerman,  D. Zuev,  B. Albrecht,  E. Alguire,  
 S. A. Baeppler,  D. Barton,  Z. Benda,  Y. A. Bernard,  E. J. Berquist,  
 K. B. Bravaya,  H. Burton,  D. Casanova,  Chun-Min Chang,  Yunqing Chen,  
 A. Chien,  K. D. Closser,  M. P. Coons,  S. Coriani,  S. Dasgupta,  
 A. L. Dempwolff,  M. Diedenhofen,  Hainam Do,  R. G. Edgar,  Po-Tung Fang,  
 S. Faraji,  S. Fatehi,  Qingguo Feng,  K. D. Fenk,  J. Fosso-Tande,  
 J. Gayvert,  Qinghui Ge,  A. Ghysels,  G. Gidofalvi,  J. Gomes,  
 J. Gonthier,  A. Gunina,  D. Hait,  M. W. D. Hanson-Heine,  
 P. H. P. Harbach,  A. W. Hauser,  J. E. Herr,  E. G. Hohenstein,  
 Z. C. Holden,  Kerwin Hui,  B. C. Huynh,  T.-C. Jagau,  Hyunjun Ji,  
 B. Kaduk,  K. Khistyaev,  Jaehoon Kim,  P. Klunzinger,  K. Koh,  
 D. Kosenkov,  L. Koulias,  T. Kowalczyk,  C. M. Krauter,  A. Kunitsa,  
 Ka Un Lao,  A. Laurent,  K. V. Lawler,  Joonho Lee,  D. Lefrancois,  
 S. Lehtola,  D. S. Levine,  Yi-Pei Li,  You-Sheng Lin,  Fenglai Liu,  
 E. Livshits,  A. Luenser,  P. Manohar,  E. Mansoor,  S. F. Manzer,  
 Shan-Ping Mao,  Yuezhi Mao,  N. Mardirossian,  A. V. Marenich,  
 T. Markovich,  L. A. Martinez-Martinez,  S. A. Maurer,  N. J. Mayhall,  
 S. C. McKenzie,  J.-M. Mewes,  A. F. Morrison,  J. W. Mullinax,  K. Nanda,  
 T. S. Nguyen-Beck,  R. Olivares-Amaya,  J. A. Parkhill,  T. M. Perrine,  
 F. Plasser,  P. Pokhilko,  S. Prager,  A. Prociuk,  E. Ramos,  D. R. Rehn,  
 F. Rob,  M. Schneider,  N. Sergueev,  S. M. Sharada,  S. Sharma,  
 D. W. Small,  T. Stauch,  T. Stein,  Yu-Chuan Su,  A. J. W. Thom,  
 A. Tkatchenko,  T. Tsuchimochi,  N. M. Tubman,  L. Vogt,  M. L. Vidal,  
 O. Vydrov,  M. A. Watson,  J. Wenzel,  M. de Wergifosse,  T. A. Wesolowski,  
 A. White,  J. Witte,  A. Yamada,  Jun Yang,  K. Yao,  S. Yeganeh,  
 S. R. Yost,  Zhi-Qiang You,  A. Zech,  Igor Ying Zhang,  Xing Zhang,  
 Yan Zhao,  Ying Zhu,  B. R. Brooks,  G. K. L. Chan,  C. J. Cramer,  
 M. S. Gordon,  W. J. Hehre,  A. Klamt,  M. W. Schmidt,  C. D. Sherrill,  
 D. G. Truhlar,  A. Aspuru-Guzik,  R. Baer,  A. T. Bell,  N. A. Besley,  
 Jeng-Da Chai,  A. E. DePrince, III,  R. A. DiStasio Jr.,  A. Dreuw,  
 B. D. Dunietz,  T. R. Furlani,  Chao-Ping Hsu,  Yousung Jung,  Jing Kong,  
 D. S. Lambrecht,  WanZhen Liang,  C. Ochsenfeld,  V. A. Rassolov,  
 L. V. Slipchenko,  J. E. Subotnik,  T. Van Voorhis,  J. M. Herbert,  
 A. I. Krylov,  P. M. W. Gill,  M. Head-Gordon

 Contributors to earlier versions of Q-Chem not listed above: 
 R. D. Adamson,  B. Austin,  J. Baker,  G. J. O. Beran,  K. Brandhorst,  
 S. T. Brown,  E. F. C. Byrd,  A. K. Chakraborty,  C.-L. Cheng,  
 Siu Hung Chien,  D. M. Chipman,  D. L. Crittenden,  H. Dachsel,  
 R. J. Doerksen,  A. D. Dutoi,  L. Fusti-Molnar,  W. A. Goddard III,  
 A. Golubeva-Zadorozhnaya,  S. R. Gwaltney,  G. Hawkins,  A. Heyden,  
 S. Hirata,  G. Kedziora,  F. J. Keil,  C. Kelley,  Jihan Kim,  R. A. King,  
 R. Z. Khaliullin,  P. P. Korambath,  W. Kurlancheek,  A. M. Lee,  M. S. Lee,  
 S. V. Levchenko,  Ching Yeh Lin,  D. Liotard,  R. C. Lochan,  I. Lotan,  
 P. E. Maslen,  N. Nair,  D. P. O'Neill,  D. Neuhauser,  E. Neuscamman,  
 C. M. Oana,  R. Olson,  B. Peters,  R. Peverati,  P. A. Pieniazek,  
 Y. M. Rhee,  J. Ritchie,  M. A. Rohrdanz,  E. Rosta,  N. J. Russ,  
 H. F. Schaefer III,  N. E. Schultz,  N. Shenvi,  A. C. Simmonett,  A. Sodt,  
 D. Stuck,  K. S. Thanthiriwatte,  V. Vanovschi,  Tao Wang,  A. Warshel,  
 C. F. Williams,  Q. Wu,  X. Xu,  W. Zhang

 Please cite Q-Chem as follows:
 Y. Shao et al., Mol. Phys. 113, 184-215 (2015)
 DOI: 10.1080/00268976.2014.952696

 Q-Chem 5.1.2 for Intel X86 EM64T Linux

 Parts of Q-Chem use Armadillo 8.300.2 (Tropical Shenanigans).
 http://arma.sourceforge.net/

 Q-Chem begins on Wed Jul  3 18:37:55 2019  

Host: 
0

     Scratch files written to /scratch/xuedong/qchem34626//
 Dec218 |scratch|qcdevops|jenkins|workspace|build_RNUM 6581   
Processing $rem in /home/qwang/software/qchem5.1.2/config/preferences.
 MEM_TOTAL  4000 
Core orbitals will be frozen
Input Ideriv = 1
Curr. Ideriv = -1
Max.  Ideriv = 1

Checking the input file for inconsistencies... 	...done.

--------------------------------------------------------------
User input:
--------------------------------------------------------------

$molecule
0 1
Si     3.762272567     0.100944777     0.006072646
H     3.981291986     1.564414477     0.064186564
H     4.389924271    -0.416429655    -1.231422106
H     4.439607953    -0.519141536     1.167849490
C     1.925645521    -0.291305561     0.027271718
H     1.759401550    -1.366486120    -0.015128601
H     1.421772543     0.162315456    -0.824405717
H     1.458679937     0.087942478     0.934592371
@Si   -3.907140031    -0.117635489     0.010079163
@H    -4.136833352    -1.396538126    -0.700402598
@H    -4.710592472     0.935320271    -0.652331018
@H    -4.387581337    -0.264631914     1.403160260
@C    -2.083542944     0.330823852    -0.013915175
@H    -1.909161199     1.270643121     0.507335923
@H    -1.724878355     0.440041668    -1.036004450
@H    -1.487174644    -0.440077660     0.470757087
$end

$rem
BASIS = aug-cc-pVTZ
JOB_TYPE  =  SP
METHOD  =  MP2
SCF_MAX_CYCLES  =  200
$end

--------------------------------------------------------------
 ----------------------------------------------------------------
             Standard Nuclear Orientation (Angstroms)
    I     Atom           X                Y                Z
 ----------------------------------------------------------------
    1      Si      3.7622725670     0.1009447770     0.0060726460
    2      H       3.9812919860     1.5644144770     0.0641865640
    3      H       4.3899242710    -0.4164296550    -1.2314221060
    4      H       4.4396079530    -0.5191415360     1.1678494900
    5      C       1.9256455210    -0.2913055610     0.0272717180
    6      H       1.7594015500    -1.3664861200    -0.0151286010
    7      H       1.4217725430     0.1623154560    -0.8244057170
    8      H       1.4586799370     0.0879424780     0.9345923710
    9      GH     -3.9071400310    -0.1176354890     0.0100791630
   10      GH     -4.1368333520    -1.3965381260    -0.7004025980
   11      GH     -4.7105924720     0.9353202710    -0.6523310180
   12      GH     -4.3875813370    -0.2646319140     1.4031602600
   13      GH     -2.0835429440     0.3308238520    -0.0139151750
   14      GH     -1.9091611990     1.2706431210     0.5073359230
   15      GH     -1.7248783550     0.4400416680    -1.0360044500
   16      GH     -1.4871746440    -0.4400776600     0.4707570870
 ----------------------------------------------------------------
 Nuclear Repulsion Energy =    62.8465305472 hartrees
 There are       13 alpha and       13 beta electrons
 Requested basis set is aug-cc-pVTZ
 There are 168 shells and 468 basis functions

 Total QAlloc Memory Limit   4000 MB
 Mega-Array Size       188 MB
 MEM_STATIC part       192 MB
 A cutoff of  1.0D-08 yielded  11109 shell pairs
 There are     82537 function pairs (    104583 Cartesian)
 
 -------------------------------------------------------
 OpenMP Integral Computing Module                       
 Release: version 1.0, May 2013, Q-Chem Inc. Pittsburgh 
 -------------------------------------------------------
 Integral Job Info:
 Integral job number is                      11
 Integral operator is                         1
 short-range coefficients                     0
 long-range coefficients              100000000
 Omega coefficients                           0
 if combine SR and LR in K                    0
 Integral screening is                        0
 Integral computing path is                   2
 max size of driver memory is            800000
 size of driver memory is                776718
 size of scratch memory is             29531563
 max col of scratch BK array              10000
 max len of scratch array in speh3          662
 max len of scratch index in speh4           32
 max int batch size is                      520
 min int batch size is                       52
 fixed nKL is                                31
 max L of basis functions is                  3
 order of int derivative is                   0
 number of shells is                        168
 number of basis is                         528
 number of cartesian basis is               528
 number of contracted shell pairs         11109
 number of primitive shell pairs          29503
 maxK2 (contraction) of shell pair          169
 max number of K2 of shell pair               1
 max number of CS2 of shell pair           2125
 max number of PS2 of shell pair           2769
 mem total for path MDJ                  773676
 -------------------------------------------------------
 Smallest overlap matrix eigenvalue = 1.17E-05

 Q-Chem warning in module stvman/mkSTV.C, line 306:

 Overlap eigenvalue is smaller than square root of threshold
 Use THRESH >= 12 to get rid of this warning


 Scale SEOQF with 1.000000e-01/1.000000e-01/1.000000e-01

 Standard Electronic Orientation quadrupole field applied
 Nucleus-field energy     =     0.0000000100 hartrees
 Guess from superposition of atomic densities
 Warning:  Energy on first SCF cycle will be non-variational
 SAD guess density has 26.000000 electrons

 -----------------------------------------------------------------------
  General SCF calculation program by
  Eric Jon Sundstrom, Paul Horn, Yuezhi Mao, Dmitri Zuev, Alec White,
  David Stuck, Shaama M.S., Shane Yost, Joonho Lee, David Small,
  Daniel Levine, Susi Lehtola, Hugh Burton, Evgeny Epifanovsky
 -----------------------------------------------------------------------
 Hartree-Fock
 using 6 threads for integral computing
 -------------------------------------------------------
 OpenMP Integral computing Module                
 Release: version 1.0, May 2013, Q-Chem Inc. Pittsburgh 
 -------------------------------------------------------
 A restricted SCF calculation will be
 performed using DIIS
 SCF converges when DIIS error is below 1.0e-05
 ---------------------------------------
  Cycle       Energy         DIIS error
 ---------------------------------------
    1    -330.4723929618      1.04e-02  
    2    -330.2950646234      7.86e-04  
    3    -330.3203227474      2.33e-04  
    4    -330.3227957068      9.49e-05  
    5    -330.3231622203      1.18e-05  
    6    -330.3231733621      2.48e-06  Convergence criterion met
 ---------------------------------------
 SCF time:   CPU 390.35s  wall 65.00s 
 SCF   energy in the final basis set =     -330.3231733621
 Total energy in the final basis set =     -330.3231733621
 
 Components of the MP2 correlation energy:
        aaaa  correlation energy =        -0.0278535213 au
        abab  correlation energy =        -0.2680228417 au
        bbbb  correlation energy =        -0.0278535213 au
        non-Brillouin singles    =        -0.0000000000 au

 Total  MP2   correlation energy =                    -0.32372988 au
        MP2         total energy =                  -330.64690325 au
 
 --------------------------------------------------------------
 
                    Orbital Energies (a.u.)
 --------------------------------------------------------------
 
 Alpha MOs
 -- Occupied --
-68.766 -11.208  -6.115  -4.221  -4.221  -4.220  -0.950  -0.699
 -0.565  -0.565  -0.469  -0.469  -0.455
 -- Virtual --
  0.019   0.034   0.037   0.038   0.043   0.052   0.054   0.060
  0.064   0.069   0.071   0.074   0.078   0.085   0.086   0.088
  0.100   0.105   0.116   0.120   0.123   0.129   0.141   0.144
  0.145   0.157   0.159   0.164   0.170   0.174   0.187   0.192
  0.197   0.202   0.203   0.208   0.213   0.225   0.235   0.239
  0.241   0.250   0.250   0.258   0.269   0.276   0.284   0.287
  0.294   0.300   0.302   0.306   0.307   0.315   0.316   0.327
  0.332   0.336   0.341   0.342   0.343   0.349   0.358   0.362
  0.365   0.375   0.383   0.389   0.400   0.403   0.411   0.415
  0.423   0.428   0.435   0.439   0.440   0.447   0.452   0.461
  0.470   0.474   0.476   0.481   0.482   0.487   0.495   0.505
  0.508   0.511   0.515   0.526   0.534   0.541   0.545   0.562
  0.573   0.579   0.582   0.596   0.601   0.606   0.622   0.628
  0.637   0.651   0.654   0.657   0.662   0.666   0.678   0.684
  0.689   0.697   0.698   0.703   0.710   0.733   0.737   0.755
  0.767   0.770   0.778   0.792   0.801   0.810   0.824   0.832
  0.840   0.844   0.851   0.861   0.868   0.892   0.899   0.906
  0.921   0.922   0.928   0.934   0.940   0.948   0.961   0.975
  0.977   0.989   0.997   1.004   1.008   1.022   1.025   1.033
  1.039   1.048   1.052   1.060   1.064   1.073   1.082   1.085
  1.093   1.101   1.102   1.118   1.124   1.135   1.139   1.147
  1.148   1.153   1.162   1.165   1.167   1.172   1.178   1.184
  1.185   1.192   1.197   1.208   1.210   1.223   1.224   1.225
  1.234   1.249   1.259   1.264   1.267   1.283   1.289   1.302
  1.306   1.319   1.329   1.337   1.344   1.348   1.356   1.363
  1.368   1.386   1.392   1.396   1.401   1.407   1.412   1.420
  1.427   1.430   1.440   1.444   1.451   1.460   1.469   1.476
  1.494   1.495   1.499   1.519   1.540   1.543   1.553   1.572
  1.585   1.605   1.614   1.620   1.630   1.646   1.657   1.662
  1.668   1.686   1.696   1.702   1.723   1.730   1.743   1.773
  1.782   1.788   1.806   1.818   1.828   1.841   1.865   1.870
  1.878   1.894   1.914   1.923   1.939   1.944   1.959   1.980
  2.016   2.023   2.025   2.032   2.047   2.055   2.063   2.074
  2.077   2.092   2.116   2.137   2.142   2.154   2.165   2.172
  2.189   2.198   2.227   2.278   2.282   2.288   2.306   2.333
  2.352   2.368   2.391   2.406   2.430   2.434   2.473   2.478
  2.512   2.546   2.550   2.558   2.688   2.695   2.776   2.792
  2.795   2.805   2.995   3.002   3.102   3.107   3.157   3.165
  3.339   3.422   3.428   3.453   3.568   3.577   3.615   3.672
  3.679   3.693   3.714   3.719   3.767   3.776   3.845   3.864
  3.878   3.947   3.952   3.960   3.993   4.024   4.048   4.060
  4.087   4.094   4.098   4.107   4.112   4.132   4.132   4.135
  4.139   4.159   4.170   4.175   4.193   4.215   4.216   4.227
  4.231   4.244   4.244   4.281   4.291   4.333   4.337   4.338
  4.360   4.361   4.367   4.374   4.395   4.411   4.443   4.447
  4.485   4.498   4.509   4.522   4.529   4.532   4.538   4.560
  4.564   4.576   4.598   4.604   4.606   4.635   4.646   4.653
  4.657   4.663   4.730   4.735   4.774   4.777   4.788   4.804
  4.809   4.820   4.859   4.880   4.888   4.896   4.906   4.915
  4.931   4.980   5.007   5.031   5.035   5.054   5.062   5.165
  5.169   5.172   5.175   5.222   5.236   5.242   5.261   5.292
  5.298   5.345   5.348   5.349   5.363   5.366   5.469   5.473
  5.496   5.503   5.536   5.573   5.608   5.611   5.647   5.652
  5.671   5.758   5.951   6.066   6.115   6.136   6.148   6.152
  6.155   6.194   6.198   6.210   6.708   6.714   6.772   6.775
  7.085   7.476   7.812   7.817   8.185   8.201   9.128  10.331
 15.206  17.397  20.445  20.457  20.842  51.918 107.000
 --------------------------------------------------------------
 
          Ground-State Mulliken Net Atomic Charges

     Atom                 Charge (a.u.)
  ----------------------------------------
      1 Si                    1.293141
      2 H                    -0.378152
      3 H                    -0.392734
      4 H                    -0.391279
      5 C                    -1.092185
      6 H                     0.315985
      7 H                     0.333078
      8 H                     0.313355
      9 GH                    0.000958
     10 GH                    0.000010
     11 GH                    0.000158
     12 GH                    0.000065
     13 GH                    0.004708
     14 GH                    0.000329
     15 GH                   -0.002434
     16 GH                   -0.005004
  ----------------------------------------
  Sum of atomic charges =    -0.000000

 -----------------------------------------------------------------
                    Cartesian Multipole Moments
 -----------------------------------------------------------------
    Charge (ESU x 10^10)
                -0.0000
    Dipole Moment (Debye)
         X      -0.6928      Y      -0.1486      Z       0.0081
       Tot       0.7086
    Quadrupole Moments (Debye-Ang)
        XX     -28.0086     XY      -0.5301     YY     -23.2869
        XZ       0.0211     YZ      -0.0003     ZZ     -23.2815
    Octopole Moments (Debye-Ang^2)
       XXX    -245.6513    XXY      -0.2901    XYY     -75.6395
       YYY      -1.5773    XXZ      -0.3306    XYZ       0.0521
       YYZ      -0.5227    XZZ     -76.7380    YZZ       1.9290
       ZZZ      -0.5478
    Hexadecapole Moments (Debye-Ang^3)
      XXXX   -1685.6153   XXXY      -3.7086   XXYY    -284.5944
      XYYY     -16.8397   YYYY     -61.8422   XXXZ      -2.8558
      XXYZ       0.3898   XYYZ      -1.4381   YYYZ       0.1524
      XXZZ    -290.4984   XYZZ       1.9260   YYZZ     -20.0830
      XZZZ      -1.2266   YZZZ       0.2074   ZZZZ     -57.0957
 -----------------------------------------------------------------
Archival summary:
1\1\mm2.localdomain\SP\MP2\BasisUnspecified\i116h8\xuedong\WedJul318:44:472019WedJul318:44:472019\0\\#,MP2,BasisUnspecified,\\0,1\Si\H,1,1.48088\H,1,1.48088,2,108.387\H,1,1.48091,2,108.383,3,-117.43,0\C,1,1.87817,2,110.546,3,121.3,0\H,5,1.08858,1,110.902,2,179.974,0\H,5,1.08863,1,110.862,2,60.0552,0\H,5,1.08878,1,110.8,2,-59.9955,0\Gh,7,3.02853,5,103.23,1,173.829,0\Gh,9,1.08851,7,118.531,5,-90.0885,0\Gh,10,1.08869,9,107.974,7,65.8766,0\Gh,10,1.08875,9,108.084,7,-50.7964,0\Gh,10,1.87808,9,110.927,7,-172.484,0\Gh,13,1.48089,10,110.567,9,-179.937,0\Gh,13,1.48091,10,110.532,9,60.0505,0\Gh,13,1.48092,10,110.529,9,-59.9311,0\\HF=-330.323173\MP2=-330.646903\\@

 Total job time:  411.98s(wall), 2463.77s(cpu) 
 Wed Jul  3 18:44:47 2019

        *************************************************************
        *                                                           *
        *  Thank you very much for using Q-Chem.  Have a nice day.  *
        *                                                           *
        *************************************************************



Running Job 3 of 3 ../qm_inp/SiH3CH3_SiH3CH3_con3.105.qcinp
qchem ../qm_inp/SiH3CH3_SiH3CH3_con3.105.qcinp_34626.2 /scratch/xuedong/qchem34626/ 1
/home/qwang/software/qchem5.1.2/exe/qcprog.exe_s ../qm_inp/SiH3CH3_SiH3CH3_con3.105.qcinp_34626.2 /scratch/xuedong/qchem34626/
Check license passed

                  Welcome to Q-Chem
     A Quantum Leap Into The Future Of Chemistry


 Q-Chem 5.1, Q-Chem, Inc., Pleasanton, CA (2018)

 Yihan Shao,  Zhengting Gan,  E. Epifanovsky,  A. T. B. Gilbert,  M. Wormit,  
 J. Kussmann,  A. W. Lange,  A. Behn,  Jia Deng,  Xintian Feng,  D. Ghosh,  
 M. Goldey,  P. R. Horn,  L. D. Jacobson,  I. Kaliman,  T. Kus,  A. Landau,  
 Jie Liu,  E. I. Proynov,  R. M. Richard,  R. P. Steele,  E. J. Sundstrom,  
 H. L. Woodcock III,  P. M. Zimmerman,  D. Zuev,  B. Albrecht,  E. Alguire,  
 S. A. Baeppler,  D. Barton,  Z. Benda,  Y. A. Bernard,  E. J. Berquist,  
 K. B. Bravaya,  H. Burton,  D. Casanova,  Chun-Min Chang,  Yunqing Chen,  
 A. Chien,  K. D. Closser,  M. P. Coons,  S. Coriani,  S. Dasgupta,  
 A. L. Dempwolff,  M. Diedenhofen,  Hainam Do,  R. G. Edgar,  Po-Tung Fang,  
 S. Faraji,  S. Fatehi,  Qingguo Feng,  K. D. Fenk,  J. Fosso-Tande,  
 J. Gayvert,  Qinghui Ge,  A. Ghysels,  G. Gidofalvi,  J. Gomes,  
 J. Gonthier,  A. Gunina,  D. Hait,  M. W. D. Hanson-Heine,  
 P. H. P. Harbach,  A. W. Hauser,  J. E. Herr,  E. G. Hohenstein,  
 Z. C. Holden,  Kerwin Hui,  B. C. Huynh,  T.-C. Jagau,  Hyunjun Ji,  
 B. Kaduk,  K. Khistyaev,  Jaehoon Kim,  P. Klunzinger,  K. Koh,  
 D. Kosenkov,  L. Koulias,  T. Kowalczyk,  C. M. Krauter,  A. Kunitsa,  
 Ka Un Lao,  A. Laurent,  K. V. Lawler,  Joonho Lee,  D. Lefrancois,  
 S. Lehtola,  D. S. Levine,  Yi-Pei Li,  You-Sheng Lin,  Fenglai Liu,  
 E. Livshits,  A. Luenser,  P. Manohar,  E. Mansoor,  S. F. Manzer,  
 Shan-Ping Mao,  Yuezhi Mao,  N. Mardirossian,  A. V. Marenich,  
 T. Markovich,  L. A. Martinez-Martinez,  S. A. Maurer,  N. J. Mayhall,  
 S. C. McKenzie,  J.-M. Mewes,  A. F. Morrison,  J. W. Mullinax,  K. Nanda,  
 T. S. Nguyen-Beck,  R. Olivares-Amaya,  J. A. Parkhill,  T. M. Perrine,  
 F. Plasser,  P. Pokhilko,  S. Prager,  A. Prociuk,  E. Ramos,  D. R. Rehn,  
 F. Rob,  M. Schneider,  N. Sergueev,  S. M. Sharada,  S. Sharma,  
 D. W. Small,  T. Stauch,  T. Stein,  Yu-Chuan Su,  A. J. W. Thom,  
 A. Tkatchenko,  T. Tsuchimochi,  N. M. Tubman,  L. Vogt,  M. L. Vidal,  
 O. Vydrov,  M. A. Watson,  J. Wenzel,  M. de Wergifosse,  T. A. Wesolowski,  
 A. White,  J. Witte,  A. Yamada,  Jun Yang,  K. Yao,  S. Yeganeh,  
 S. R. Yost,  Zhi-Qiang You,  A. Zech,  Igor Ying Zhang,  Xing Zhang,  
 Yan Zhao,  Ying Zhu,  B. R. Brooks,  G. K. L. Chan,  C. J. Cramer,  
 M. S. Gordon,  W. J. Hehre,  A. Klamt,  M. W. Schmidt,  C. D. Sherrill,  
 D. G. Truhlar,  A. Aspuru-Guzik,  R. Baer,  A. T. Bell,  N. A. Besley,  
 Jeng-Da Chai,  A. E. DePrince, III,  R. A. DiStasio Jr.,  A. Dreuw,  
 B. D. Dunietz,  T. R. Furlani,  Chao-Ping Hsu,  Yousung Jung,  Jing Kong,  
 D. S. Lambrecht,  WanZhen Liang,  C. Ochsenfeld,  V. A. Rassolov,  
 L. V. Slipchenko,  J. E. Subotnik,  T. Van Voorhis,  J. M. Herbert,  
 A. I. Krylov,  P. M. W. Gill,  M. Head-Gordon

 Contributors to earlier versions of Q-Chem not listed above: 
 R. D. Adamson,  B. Austin,  J. Baker,  G. J. O. Beran,  K. Brandhorst,  
 S. T. Brown,  E. F. C. Byrd,  A. K. Chakraborty,  C.-L. Cheng,  
 Siu Hung Chien,  D. M. Chipman,  D. L. Crittenden,  H. Dachsel,  
 R. J. Doerksen,  A. D. Dutoi,  L. Fusti-Molnar,  W. A. Goddard III,  
 A. Golubeva-Zadorozhnaya,  S. R. Gwaltney,  G. Hawkins,  A. Heyden,  
 S. Hirata,  G. Kedziora,  F. J. Keil,  C. Kelley,  Jihan Kim,  R. A. King,  
 R. Z. Khaliullin,  P. P. Korambath,  W. Kurlancheek,  A. M. Lee,  M. S. Lee,  
 S. V. Levchenko,  Ching Yeh Lin,  D. Liotard,  R. C. Lochan,  I. Lotan,  
 P. E. Maslen,  N. Nair,  D. P. O'Neill,  D. Neuhauser,  E. Neuscamman,  
 C. M. Oana,  R. Olson,  B. Peters,  R. Peverati,  P. A. Pieniazek,  
 Y. M. Rhee,  J. Ritchie,  M. A. Rohrdanz,  E. Rosta,  N. J. Russ,  
 H. F. Schaefer III,  N. E. Schultz,  N. Shenvi,  A. C. Simmonett,  A. Sodt,  
 D. Stuck,  K. S. Thanthiriwatte,  V. Vanovschi,  Tao Wang,  A. Warshel,  
 C. F. Williams,  Q. Wu,  X. Xu,  W. Zhang

 Please cite Q-Chem as follows:
 Y. Shao et al., Mol. Phys. 113, 184-215 (2015)
 DOI: 10.1080/00268976.2014.952696

 Q-Chem 5.1.2 for Intel X86 EM64T Linux

 Parts of Q-Chem use Armadillo 8.300.2 (Tropical Shenanigans).
 http://arma.sourceforge.net/

 Q-Chem begins on Wed Jul  3 18:44:47 2019  

Host: 
0

     Scratch files written to /scratch/xuedong/qchem34626//
 Dec218 |scratch|qcdevops|jenkins|workspace|build_RNUM 6581   
Processing $rem in /home/qwang/software/qchem5.1.2/config/preferences.
 MEM_TOTAL  4000 
Core orbitals will be frozen
Input Ideriv = 1
Curr. Ideriv = -1
Max.  Ideriv = 1

Checking the input file for inconsistencies... 	...done.

--------------------------------------------------------------
User input:
--------------------------------------------------------------

$molecule
0 1
@Si    3.762272567     0.100944777     0.006072646
@H     3.981291986     1.564414477     0.064186564
@H     4.389924271    -0.416429655    -1.231422106
@H     4.439607953    -0.519141536     1.167849490
@C     1.925645521    -0.291305561     0.027271718
@H     1.759401550    -1.366486120    -0.015128601
@H     1.421772543     0.162315456    -0.824405717
@H     1.458679937     0.087942478     0.934592371
Si   -3.907140031    -0.117635489     0.010079163
H    -4.136833352    -1.396538126    -0.700402598
H    -4.710592472     0.935320271    -0.652331018
H    -4.387581337    -0.264631914     1.403160260
C    -2.083542944     0.330823852    -0.013915175
H    -1.909161199     1.270643121     0.507335923
H    -1.724878355     0.440041668    -1.036004450
H    -1.487174644    -0.440077660     0.470757087
$end

$rem
BASIS = aug-cc-pVTZ
JOB_TYPE  =  SP
METHOD  =  MP2
SCF_MAX_CYCLES  =  200
$end

--------------------------------------------------------------
 ----------------------------------------------------------------
             Standard Nuclear Orientation (Angstroms)
    I     Atom           X                Y                Z
 ----------------------------------------------------------------
    1      GH      3.7622725670     0.1009447770     0.0060726460
    2      GH      3.9812919860     1.5644144770     0.0641865640
    3      GH      4.3899242710    -0.4164296550    -1.2314221060
    4      GH      4.4396079530    -0.5191415360     1.1678494900
    5      GH      1.9256455210    -0.2913055610     0.0272717180
    6      GH      1.7594015500    -1.3664861200    -0.0151286010
    7      GH      1.4217725430     0.1623154560    -0.8244057170
    8      GH      1.4586799370     0.0879424780     0.9345923710
    9      Si     -3.9071400310    -0.1176354890     0.0100791630
   10      H      -4.1368333520    -1.3965381260    -0.7004025980
   11      H      -4.7105924720     0.9353202710    -0.6523310180
   12      H      -4.3875813370    -0.2646319140     1.4031602600
   13      C      -2.0835429440     0.3308238520    -0.0139151750
   14      H      -1.9091611990     1.2706431210     0.5073359230
   15      H      -1.7248783550     0.4400416680    -1.0360044500
   16      H      -1.4871746440    -0.4400776600     0.4707570870
 ----------------------------------------------------------------
 Nuclear Repulsion Energy =    62.8472945214 hartrees
 There are       13 alpha and       13 beta electrons
 Requested basis set is aug-cc-pVTZ
 There are 168 shells and 468 basis functions

 Total QAlloc Memory Limit   4000 MB
 Mega-Array Size       188 MB
 MEM_STATIC part       192 MB
 A cutoff of  1.0D-08 yielded  11109 shell pairs
 There are     82537 function pairs (    104583 Cartesian)
 
 -------------------------------------------------------
 OpenMP Integral Computing Module                       
 Release: version 1.0, May 2013, Q-Chem Inc. Pittsburgh 
 -------------------------------------------------------
 Integral Job Info:
 Integral job number is                      11
 Integral operator is                         1
 short-range coefficients                     0
 long-range coefficients              100000000
 Omega coefficients                           0
 if combine SR and LR in K                    0
 Integral screening is                        0
 Integral computing path is                   2
 max size of driver memory is            800000
 size of driver memory is                776718
 size of scratch memory is             29531563
 max col of scratch BK array              10000
 max len of scratch array in speh3          662
 max len of scratch index in speh4           32
 max int batch size is                      520
 min int batch size is                       52
 fixed nKL is                                31
 max L of basis functions is                  3
 order of int derivative is                   0
 number of shells is                        168
 number of basis is                         528
 number of cartesian basis is               528
 number of contracted shell pairs         11109
 number of primitive shell pairs          29503
 maxK2 (contraction) of shell pair          169
 max number of K2 of shell pair               1
 max number of CS2 of shell pair           2125
 max number of PS2 of shell pair           2769
 mem total for path MDJ                  773676
 -------------------------------------------------------
 Smallest overlap matrix eigenvalue = 1.17E-05

 Q-Chem warning in module stvman/mkSTV.C, line 306:

 Overlap eigenvalue is smaller than square root of threshold
 Use THRESH >= 12 to get rid of this warning


 Scale SEOQF with 1.000000e-01/1.000000e-01/1.000000e-01

 Standard Electronic Orientation quadrupole field applied
 Nucleus-field energy     =     0.0000000109 hartrees
 Guess from superposition of atomic densities
 Warning:  Energy on first SCF cycle will be non-variational
 SAD guess density has 26.000000 electrons

 -----------------------------------------------------------------------
  General SCF calculation program by
  Eric Jon Sundstrom, Paul Horn, Yuezhi Mao, Dmitri Zuev, Alec White,
  David Stuck, Shaama M.S., Shane Yost, Joonho Lee, David Small,
  Daniel Levine, Susi Lehtola, Hugh Burton, Evgeny Epifanovsky
 -----------------------------------------------------------------------
 Hartree-Fock
 using 6 threads for integral computing
 -------------------------------------------------------
 OpenMP Integral computing Module                
 Release: version 1.0, May 2013, Q-Chem Inc. Pittsburgh 
 -------------------------------------------------------
 A restricted SCF calculation will be
 performed using DIIS
 SCF converges when DIIS error is below 1.0e-05
 ---------------------------------------
  Cycle       Energy         DIIS error
 ---------------------------------------
    1    -330.4724865579      1.04e-02  
    2    -330.2950628331      7.86e-04  
    3    -330.3203207089      2.33e-04  
    4    -330.3227936004      9.49e-05  
    5    -330.3231600816      1.18e-05  
    6    -330.3231712232      2.48e-06  Convergence criterion met
 ---------------------------------------
 SCF time:   CPU 390.37s  wall 65.00s 
 SCF   energy in the final basis set =     -330.3231712232
 Total energy in the final basis set =     -330.3231712232
 
 Components of the MP2 correlation energy:
        aaaa  correlation energy =        -0.0278533596 au
        abab  correlation energy =        -0.2680186953 au
        bbbb  correlation energy =        -0.0278533596 au
        non-Brillouin singles    =        -0.0000000000 au

 Total  MP2   correlation energy =                    -0.32372541 au
        MP2         total energy =                  -330.64689664 au
 
 --------------------------------------------------------------
 
                    Orbital Energies (a.u.)
 --------------------------------------------------------------
 
 Alpha MOs
 -- Occupied --
-68.766 -11.208  -6.115  -4.221  -4.221  -4.220  -0.950  -0.699
 -0.565  -0.565  -0.469  -0.469  -0.455
 -- Virtual --
  0.019   0.034   0.037   0.038   0.043   0.052   0.054   0.060
  0.064   0.069   0.071   0.074   0.077   0.085   0.086   0.088
  0.100   0.105   0.113   0.121   0.124   0.128   0.142   0.144
  0.148   0.155   0.160   0.165   0.168   0.174   0.185   0.190
  0.198   0.201   0.205   0.209   0.214   0.224   0.236   0.239
  0.242   0.248   0.253   0.259   0.266   0.273   0.286   0.290
  0.293   0.298   0.304   0.305   0.308   0.310   0.319   0.328
  0.331   0.337   0.338   0.343   0.347   0.352   0.355   0.362
  0.363   0.376   0.383   0.386   0.399   0.406   0.411   0.417
  0.421   0.428   0.436   0.438   0.439   0.450   0.452   0.459
  0.468   0.470   0.478   0.480   0.486   0.488   0.500   0.505
  0.509   0.511   0.516   0.523   0.534   0.542   0.546   0.553
  0.567   0.581   0.587   0.593   0.602   0.613   0.620   0.626
  0.644   0.647   0.655   0.657   0.661   0.668   0.678   0.684
  0.689   0.699   0.702   0.708   0.710   0.727   0.740   0.752
  0.763   0.768   0.783   0.791   0.805   0.812   0.819   0.831
  0.839   0.841   0.849   0.852   0.877   0.893   0.903   0.909
  0.912   0.918   0.930   0.933   0.940   0.952   0.958   0.967
  0.974   0.994   0.999   1.008   1.015   1.018   1.025   1.033
  1.035   1.048   1.051   1.057   1.071   1.072   1.082   1.092
  1.094   1.098   1.104   1.120   1.127   1.136   1.138   1.144
  1.152   1.155   1.158   1.161   1.169   1.174   1.178   1.183
  1.184   1.192   1.201   1.205   1.212   1.219   1.224   1.228
  1.242   1.248   1.249   1.265   1.267   1.276   1.283   1.301
  1.307   1.317   1.323   1.340   1.344   1.346   1.357   1.362
  1.377   1.383   1.391   1.397   1.400   1.409   1.411   1.425
  1.431   1.437   1.442   1.448   1.454   1.457   1.466   1.478
  1.491   1.497   1.501   1.525   1.527   1.538   1.548   1.559
  1.593   1.599   1.617   1.621   1.631   1.640   1.651   1.665
  1.675   1.684   1.702   1.705   1.719   1.731   1.758   1.769
  1.783   1.791   1.798   1.813   1.829   1.847   1.867   1.877
  1.885   1.897   1.911   1.922   1.931   1.951   1.962   2.001
  2.009   2.023   2.025   2.033   2.040   2.053   2.064   2.071
  2.081   2.089   2.107   2.136   2.147   2.160   2.169   2.170
  2.184   2.187   2.235   2.280   2.281   2.292   2.293   2.330
  2.342   2.371   2.386   2.396   2.439   2.446   2.477   2.484
  2.503   2.544   2.551   2.560   2.690   2.695   2.769   2.787
  2.800   2.809   2.996   3.000   3.104   3.107   3.134   3.176
  3.328   3.424   3.429   3.452   3.570   3.575   3.617   3.654
  3.687   3.689   3.714   3.716   3.767   3.773   3.842   3.847
  3.921   3.953   3.955   3.958   3.993   4.022   4.057   4.062
  4.081   4.097   4.102   4.112   4.115   4.126   4.133   4.136
  4.139   4.151   4.173   4.182   4.194   4.213   4.216   4.225
  4.229   4.244   4.252   4.280   4.292   4.333   4.334   4.337
  4.358   4.363   4.368   4.378   4.396   4.413   4.427   4.441
  4.477   4.488   4.508   4.518   4.532   4.535   4.539   4.559
  4.565   4.579   4.597   4.604   4.610   4.635   4.642   4.653
  4.657   4.658   4.725   4.737   4.771   4.775   4.789   4.804
  4.813   4.820   4.863   4.880   4.892   4.901   4.912   4.919
  4.927   4.959   5.009   5.032   5.036   5.052   5.059   5.163
  5.167   5.172   5.175   5.223   5.239   5.244   5.263   5.288
  5.299   5.345   5.346   5.349   5.360   5.377   5.468   5.474
  5.491   5.510   5.549   5.584   5.610   5.612   5.647   5.654
  5.667   5.763   5.948   6.071   6.120   6.131   6.143   6.149
  6.151   6.194   6.195   6.208   6.708   6.715   6.765   6.777
  7.093   7.475   7.810   7.815   8.173   8.210   9.123  10.353
 15.215  17.317  20.445  20.455  20.849  52.077 107.003
 --------------------------------------------------------------
 
          Ground-State Mulliken Net Atomic Charges

     Atom                 Charge (a.u.)
  ----------------------------------------
      1 GH                    0.000784
      2 GH                   -0.000060
      3 GH                    0.000081
      4 GH                    0.000094
      5 GH                    0.001234
      6 GH                    0.000567
      7 GH                   -0.001336
      8 GH                   -0.001914
      9 Si                    1.314552
     10 H                    -0.379584
     11 H                    -0.394276
     12 H                    -0.390913
     13 C                    -1.077320
     14 H                     0.306132
     15 H                     0.302806
     16 H                     0.319151
  ----------------------------------------
  Sum of atomic charges =    -0.000000

 -----------------------------------------------------------------
                    Cartesian Multipole Moments
 -----------------------------------------------------------------
    Charge (ESU x 10^10)
                -0.0000
    Dipole Moment (Debye)
         X       0.6886      Y       0.1706      Z      -0.0100
       Tot       0.7095
    Quadrupole Moments (Debye-Ang)
        XX     -28.1817     XY      -0.6328     YY     -23.2906
        XZ       0.0386     YZ       0.0022     ZZ     -23.2815
    Octopole Moments (Debye-Ang^2)
       XXX     258.1587    XXY       0.4915    XYY      79.4298
       YYY      -0.2142    XXZ      -0.0308    XYZ      -0.4289
       YYZ       1.7437    XZZ      79.7435    YZZ       0.1012
       ZZZ      -2.1972
    Hexadecapole Moments (Debye-Ang^3)
      XXXX   -1834.9562   XXXY      -4.0907   XXYY    -309.6604
      XYYY     -12.9339   YYYY     -63.7981   XXXZ       0.1783
      XXYZ       2.7848   XYYZ      -5.3713   YYYZ       0.4832
      XXZZ    -310.6401   XYZZ      -4.8620   YYZZ     -20.1301
      XZZZ       7.8264   YZZZ       0.0710   ZZZZ     -57.1068
 -----------------------------------------------------------------
Archival summary:
1\1\mm2.localdomain\SP\MP2\BasisUnspecified\i116h8\xuedong\WedJul318:51:462019WedJul318:51:462019\0\\#,MP2,BasisUnspecified,\\0,1\Si\H,1,1.48089\H,1,1.48091,2,108.381\H,1,1.48092,2,108.378,3,117.417,0\C,1,1.87808,2,110.567,3,-121.294,0\H,5,1.08851,1,110.927,2,-179.937,0\H,5,1.08869,1,110.845,2,-59.996,0\H,5,1.08875,1,110.826,2,59.9946,0\Gh,6,3.02853,5,118.531,1,-172.484,0\Gh,9,1.08863,6,103.23,5,-90.0885,0\Gh,10,1.08858,9,107.96,6,52.1683,0\Gh,10,1.08878,9,108.118,6,-64.5331,0\Gh,10,1.87817,9,110.862,6,173.829,0\Gh,13,1.48088,10,110.546,9,60.0552,0\Gh,13,1.48088,10,110.544,9,-179.931,0\Gh,13,1.48091,10,110.522,9,-59.9389,0\\HF=-330.323171\MP2=-330.646897\\@

 Total job time:  419.37s(wall), 2508.13s(cpu) 
 Wed Jul  3 18:51:46 2019

        *************************************************************
        *                                                           *
        *  Thank you very much for using Q-Chem.  Have a nice day.  *
        *                                                           *
        *************************************************************


