
Running Job 1 of 3 ../qm_inp/SiH3CH3_SiH3CH3_con3.200.qcinp
qchem ../qm_inp/SiH3CH3_SiH3CH3_con3.200.qcinp_35149.0 /scratch/xuedong/qchem35149/ 1
/home/qwang/software/qchem5.1.2/exe/qcprog.exe_s ../qm_inp/SiH3CH3_SiH3CH3_con3.200.qcinp_35149.0 /scratch/xuedong/qchem35149/
Check license passed

                  Welcome to Q-Chem
     A Quantum Leap Into The Future Of Chemistry


 Q-Chem 5.1, Q-Chem, Inc., Pleasanton, CA (2018)

 Yihan Shao,  Zhengting Gan,  E. Epifanovsky,  A. T. B. Gilbert,  M. Wormit,  
 J. Kussmann,  A. W. Lange,  A. Behn,  Jia Deng,  Xintian Feng,  D. Ghosh,  
 M. Goldey,  P. R. Horn,  L. D. Jacobson,  I. Kaliman,  T. Kus,  A. Landau,  
 Jie Liu,  E. I. Proynov,  R. M. Richard,  R. P. Steele,  E. J. Sundstrom,  
 H. L. Woodcock III,  P. M. Zimmerman,  D. Zuev,  B. Albrecht,  E. Alguire,  
 S. A. Baeppler,  D. Barton,  Z. Benda,  Y. A. Bernard,  E. J. Berquist,  
 K. B. Bravaya,  H. Burton,  D. Casanova,  Chun-Min Chang,  Yunqing Chen,  
 A. Chien,  K. D. Closser,  M. P. Coons,  S. Coriani,  S. Dasgupta,  
 A. L. Dempwolff,  M. Diedenhofen,  Hainam Do,  R. G. Edgar,  Po-Tung Fang,  
 S. Faraji,  S. Fatehi,  Qingguo Feng,  K. D. Fenk,  J. Fosso-Tande,  
 J. Gayvert,  Qinghui Ge,  A. Ghysels,  G. Gidofalvi,  J. Gomes,  
 J. Gonthier,  A. Gunina,  D. Hait,  M. W. D. Hanson-Heine,  
 P. H. P. Harbach,  A. W. Hauser,  J. E. Herr,  E. G. Hohenstein,  
 Z. C. Holden,  Kerwin Hui,  B. C. Huynh,  T.-C. Jagau,  Hyunjun Ji,  
 B. Kaduk,  K. Khistyaev,  Jaehoon Kim,  P. Klunzinger,  K. Koh,  
 D. Kosenkov,  L. Koulias,  T. Kowalczyk,  C. M. Krauter,  A. Kunitsa,  
 Ka Un Lao,  A. Laurent,  K. V. Lawler,  Joonho Lee,  D. Lefrancois,  
 S. Lehtola,  D. S. Levine,  Yi-Pei Li,  You-Sheng Lin,  Fenglai Liu,  
 E. Livshits,  A. Luenser,  P. Manohar,  E. Mansoor,  S. F. Manzer,  
 Shan-Ping Mao,  Yuezhi Mao,  N. Mardirossian,  A. V. Marenich,  
 T. Markovich,  L. A. Martinez-Martinez,  S. A. Maurer,  N. J. Mayhall,  
 S. C. McKenzie,  J.-M. Mewes,  A. F. Morrison,  J. W. Mullinax,  K. Nanda,  
 T. S. Nguyen-Beck,  R. Olivares-Amaya,  J. A. Parkhill,  T. M. Perrine,  
 F. Plasser,  P. Pokhilko,  S. Prager,  A. Prociuk,  E. Ramos,  D. R. Rehn,  
 F. Rob,  M. Schneider,  N. Sergueev,  S. M. Sharada,  S. Sharma,  
 D. W. Small,  T. Stauch,  T. Stein,  Yu-Chuan Su,  A. J. W. Thom,  
 A. Tkatchenko,  T. Tsuchimochi,  N. M. Tubman,  L. Vogt,  M. L. Vidal,  
 O. Vydrov,  M. A. Watson,  J. Wenzel,  M. de Wergifosse,  T. A. Wesolowski,  
 A. White,  J. Witte,  A. Yamada,  Jun Yang,  K. Yao,  S. Yeganeh,  
 S. R. Yost,  Zhi-Qiang You,  A. Zech,  Igor Ying Zhang,  Xing Zhang,  
 Yan Zhao,  Ying Zhu,  B. R. Brooks,  G. K. L. Chan,  C. J. Cramer,  
 M. S. Gordon,  W. J. Hehre,  A. Klamt,  M. W. Schmidt,  C. D. Sherrill,  
 D. G. Truhlar,  A. Aspuru-Guzik,  R. Baer,  A. T. Bell,  N. A. Besley,  
 Jeng-Da Chai,  A. E. DePrince, III,  R. A. DiStasio Jr.,  A. Dreuw,  
 B. D. Dunietz,  T. R. Furlani,  Chao-Ping Hsu,  Yousung Jung,  Jing Kong,  
 D. S. Lambrecht,  WanZhen Liang,  C. Ochsenfeld,  V. A. Rassolov,  
 L. V. Slipchenko,  J. E. Subotnik,  T. Van Voorhis,  J. M. Herbert,  
 A. I. Krylov,  P. M. W. Gill,  M. Head-Gordon

 Contributors to earlier versions of Q-Chem not listed above: 
 R. D. Adamson,  B. Austin,  J. Baker,  G. J. O. Beran,  K. Brandhorst,  
 S. T. Brown,  E. F. C. Byrd,  A. K. Chakraborty,  C.-L. Cheng,  
 Siu Hung Chien,  D. M. Chipman,  D. L. Crittenden,  H. Dachsel,  
 R. J. Doerksen,  A. D. Dutoi,  L. Fusti-Molnar,  W. A. Goddard III,  
 A. Golubeva-Zadorozhnaya,  S. R. Gwaltney,  G. Hawkins,  A. Heyden,  
 S. Hirata,  G. Kedziora,  F. J. Keil,  C. Kelley,  Jihan Kim,  R. A. King,  
 R. Z. Khaliullin,  P. P. Korambath,  W. Kurlancheek,  A. M. Lee,  M. S. Lee,  
 S. V. Levchenko,  Ching Yeh Lin,  D. Liotard,  R. C. Lochan,  I. Lotan,  
 P. E. Maslen,  N. Nair,  D. P. O'Neill,  D. Neuhauser,  E. Neuscamman,  
 C. M. Oana,  R. Olson,  B. Peters,  R. Peverati,  P. A. Pieniazek,  
 Y. M. Rhee,  J. Ritchie,  M. A. Rohrdanz,  E. Rosta,  N. J. Russ,  
 H. F. Schaefer III,  N. E. Schultz,  N. Shenvi,  A. C. Simmonett,  A. Sodt,  
 D. Stuck,  K. S. Thanthiriwatte,  V. Vanovschi,  Tao Wang,  A. Warshel,  
 C. F. Williams,  Q. Wu,  X. Xu,  W. Zhang

 Please cite Q-Chem as follows:
 Y. Shao et al., Mol. Phys. 113, 184-215 (2015)
 DOI: 10.1080/00268976.2014.952696

 Q-Chem 5.1.2 for Intel X86 EM64T Linux

 Parts of Q-Chem use Armadillo 8.300.2 (Tropical Shenanigans).
 http://arma.sourceforge.net/

 Q-Chem begins on Wed Jul  3 19:46:52 2019  

Host: 
0

     Scratch files written to /scratch/xuedong/qchem35149//
 Dec218 |scratch|qcdevops|jenkins|workspace|build_RNUM 6581   
Processing $rem in /home/qwang/software/qchem5.1.2/config/preferences.
 MEM_TOTAL  4000 
Core orbitals will be frozen
Input Ideriv = 1
Curr. Ideriv = -1
Max.  Ideriv = 1

Checking the input file for inconsistencies... 	...done.

--------------------------------------------------------------
User input:
--------------------------------------------------------------
$molecule
0 1
Si     3.762272567     0.100944777     0.006072646
H     3.981291986     1.564414477     0.064186564
H     4.389924271    -0.416429655    -1.231422106
H     4.439607953    -0.519141536     1.167849490
C     1.925645521    -0.291305561     0.027271718
H     1.759401550    -1.366486120    -0.015128601
H     1.421772543     0.162315456    -0.824405717
H     1.458679937     0.087942478     0.934592371
Si    -6.688570710    -0.095603831     0.005566717
H    -6.918264031    -1.374506468    -0.704915044
H    -7.492023150     0.957351929    -0.656843464
H    -7.169012016    -0.242600256     1.398647814
C    -4.864973623     0.352855509    -0.018427621
H    -4.690591878     1.292674779     0.502823477
H    -4.506309034     0.462073325    -1.040516896
H    -4.268605322    -0.418046002     0.466244641
$end

$rem
BASIS = aug-cc-pVTZ
JOB_TYPE  =  SP
METHOD  =  MP2
SCF_MAX_CYCLES  =  200
$end

--------------------------------------------------------------
 ----------------------------------------------------------------
             Standard Nuclear Orientation (Angstroms)
    I     Atom           X                Y                Z
 ----------------------------------------------------------------
    1      Si      5.2275655519     0.0921352895    -0.0001600973
    2      H       5.4457549480     1.5499328713     0.1423526883
    3      H       5.8540577479    -0.3522800025    -1.2662638854
    4      H       5.9066677822    -0.5937256539     1.1229741880
    5      C       3.3912064641    -0.3019378117     0.0004109572
    6      H       3.2255726501    -1.3729718946    -0.1039897720
    7      H       2.8860388368     0.1998979846    -0.8229850351
    8      H       2.9250910808     0.0238127250     0.9287103359
    9      Si     -5.2231481517    -0.1111867734     0.0000319393
   10      H      -5.4529033765    -1.3469562051    -0.7830528312
   11      H      -6.0280373403     0.9778130627    -0.5993607992
   12      H      -5.7018362058    -0.3389366911     1.3828169775
   13      C      -3.3998568827     0.3391539685    -0.0000595630
   14      H      -3.2254306737     1.2473296050     0.5745398377
   15      H      -3.0424794827     0.5076217064    -1.0145226329
   16      H      -2.8024370575    -0.4581136740     0.4384667763
 ----------------------------------------------------------------
 Molecular Point Group                 C1    NOp =  1
 Largest Abelian Subgroup              C1    NOp =  1
 Nuclear Repulsion Energy =   165.3263426612 hartrees
 There are       26 alpha and       26 beta electrons
 Requested basis set is aug-cc-pVTZ
 There are 168 shells and 468 basis functions

 Total QAlloc Memory Limit   4000 MB
 Mega-Array Size       188 MB
 MEM_STATIC part       192 MB
 A cutoff of  1.0D-08 yielded   9210 shell pairs
 There are     65710 function pairs (     82686 Cartesian)
 
 -------------------------------------------------------
 OpenMP Integral Computing Module                       
 Release: version 1.0, May 2013, Q-Chem Inc. Pittsburgh 
 -------------------------------------------------------
 Integral Job Info:
 Integral job number is                      11
 Integral operator is                         1
 short-range coefficients                     0
 long-range coefficients              100000000
 Omega coefficients                           0
 if combine SR and LR in K                    0
 Integral screening is                        0
 Integral computing path is                   2
 max size of driver memory is            800000
 size of driver memory is                776718
 size of scratch memory is             29531563
 max col of scratch BK array              10000
 max len of scratch array in speh3          662
 max len of scratch index in speh4           32
 max int batch size is                      520
 min int batch size is                       52
 fixed nKL is                                31
 max L of basis functions is                  3
 order of int derivative is                   0
 number of shells is                        168
 number of basis is                         528
 number of cartesian basis is               528
 number of contracted shell pairs          9210
 number of primitive shell pairs          25733
 maxK2 (contraction) of shell pair          169
 max number of K2 of shell pair               1
 max number of CS2 of shell pair           1796
 max number of PS2 of shell pair           2314
 mem total for path MDJ                  715436
 -------------------------------------------------------
 Smallest overlap matrix eigenvalue = 1.45E-05

 Q-Chem warning in module stvman/mkSTV.C, line 306:

 Overlap eigenvalue is smaller than square root of threshold
 Use THRESH >= 12 to get rid of this warning


 Scale SEOQF with 1.000000e-02/1.000000e-01/1.000000e-01

 Standard Electronic Orientation quadrupole field applied
 Nucleus-field energy     =     0.0000000040 hartrees
 Guess from superposition of atomic densities
 Warning:  Energy on first SCF cycle will be non-variational
 SAD guess density has 52.000000 electrons

 -----------------------------------------------------------------------
  General SCF calculation program by
  Eric Jon Sundstrom, Paul Horn, Yuezhi Mao, Dmitri Zuev, Alec White,
  David Stuck, Shaama M.S., Shane Yost, Joonho Lee, David Small,
  Daniel Levine, Susi Lehtola, Hugh Burton, Evgeny Epifanovsky
 -----------------------------------------------------------------------
 Hartree-Fock
 using 6 threads for integral computing
 -------------------------------------------------------
 OpenMP Integral computing Module                
 Release: version 1.0, May 2013, Q-Chem Inc. Pittsburgh 
 -------------------------------------------------------
 A restricted SCF calculation will be
 performed using DIIS
 SCF converges when DIIS error is below 1.0e-05
 ---------------------------------------
  Cycle       Energy         DIIS error
 ---------------------------------------
    1    -660.9448805622      1.47e-02  
    2    -660.5900751538      1.11e-03  
    3    -660.6405900109      3.29e-04  
    4    -660.6455341002      1.34e-04  
    5    -660.6462669487      1.67e-05  
    6    -660.6462892389      3.49e-06  Convergence criterion met
 ---------------------------------------
 SCF time:   CPU 288.61s  wall 48.00s 
 SCF   energy in the final basis set =     -660.6462892389
 Total energy in the final basis set =     -660.6462892389
 
 Components of the MP2 correlation energy:
        aaaa  correlation energy =        -0.0557076419 au
        abab  correlation energy =        -0.5358497671 au
        bbbb  correlation energy =        -0.0557076419 au
        non-Brillouin singles    =        -0.0000000000 au

 Total  MP2   correlation energy =                    -0.64726505 au
        MP2         total energy =                  -661.29355429 au
 
 --------------------------------------------------------------
 
                    Orbital Energies (a.u.)
 --------------------------------------------------------------
 
 Alpha MOs
 -- Occupied --
-68.766 -68.766 -11.209 -11.209  -6.115  -6.115  -4.221  -4.221
 -4.221  -4.221  -4.221  -4.221  -0.951  -0.951  -0.700  -0.700
 -0.566  -0.566  -0.566  -0.566  -0.469  -0.469  -0.469  -0.469
 -0.456  -0.455
 -- Virtual --
  0.025   0.035   0.039   0.040   0.041   0.050   0.052   0.052
  0.067   0.068   0.069   0.071   0.072   0.075   0.079   0.091
  0.097   0.098   0.116   0.132   0.134   0.136   0.141   0.142
  0.145   0.148   0.149   0.155   0.158   0.162   0.163   0.170
  0.185   0.189   0.191   0.192   0.203   0.210   0.220   0.227
  0.231   0.235   0.249   0.253   0.255   0.259   0.260   0.262
  0.276   0.293   0.293   0.296   0.316   0.319   0.322   0.325
  0.330   0.331   0.332   0.334   0.335   0.339   0.343   0.346
  0.348   0.352   0.355   0.359   0.364   0.371   0.377   0.380
  0.381   0.384   0.398   0.402   0.411   0.418   0.418   0.430
  0.432   0.441   0.447   0.451   0.455   0.462   0.465   0.472
  0.475   0.478   0.480   0.481   0.481   0.488   0.491   0.495
  0.499   0.503   0.544   0.550   0.569   0.604   0.606   0.610
  0.612   0.614   0.643   0.644   0.645   0.645   0.646   0.649
  0.669   0.674   0.675   0.676   0.677   0.682   0.687   0.689
  0.691   0.692   0.694   0.700   0.701   0.715   0.747   0.764
  0.799   0.817   0.822   0.825   0.829   0.831   0.857   0.861
  0.870   0.871   0.874   0.882   0.896   0.897   0.930   0.932
  0.952   0.952   0.954   0.959   0.960   0.961   0.961   0.968
  0.969   0.976   0.995   1.005   1.017   1.026   1.034   1.036
  1.037   1.039   1.070   1.072   1.072   1.074   1.086   1.088
  1.089   1.096   1.108   1.112   1.148   1.148   1.149   1.149
  1.156   1.158   1.158   1.159   1.162   1.162   1.165   1.167
  1.186   1.188   1.197   1.203   1.251   1.255   1.261   1.265
  1.265   1.271   1.278   1.281   1.283   1.287   1.334   1.334
  1.334   1.335   1.339   1.339   1.343   1.343   1.381   1.382
  1.384   1.385   1.403   1.412   1.425   1.425   1.426   1.427
  1.429   1.429   1.440   1.445   1.445   1.446   1.450   1.470
  1.516   1.517   1.518   1.521   1.528   1.534   1.562   1.580
  1.617   1.619   1.628   1.629   1.645   1.646   1.647   1.648
  1.683   1.688   1.693   1.698   1.722   1.747   1.783   1.792
  1.829   1.829   1.830   1.831   1.849   1.849   1.891   1.893
  1.894   1.896   1.994   1.997   2.000   2.002   2.004   2.007
  2.017   2.019   2.019   2.023   2.038   2.044   2.094   2.094
  2.124   2.128   2.130   2.135   2.154   2.155   2.156   2.158
  2.217   2.217   2.273   2.274   2.276   2.277   2.305   2.307
  2.336   2.336   2.345   2.353   2.744   2.749   3.084   3.086
  3.086   3.086   3.087   3.092   3.278   3.289   3.410   3.412
  3.413   3.415   3.425   3.431   3.560   3.560   3.561   3.562
  3.612   3.612   3.627   3.630   3.654   3.656   3.657   3.659
  3.708   3.708   3.709   3.710   3.826   3.826   3.827   3.827
  3.940   3.941   3.942   3.943   3.992   3.992   4.002   4.004
  4.028   4.030   4.030   4.031   4.085   4.085   4.097   4.098
  4.109   4.111   4.114   4.118   4.130   4.130   4.131   4.131
  4.146   4.155   4.190   4.197   4.202   4.204   4.204   4.205
  4.214   4.215   4.216   4.216   4.330   4.330   4.330   4.331
  4.335   4.335   4.355   4.359   4.494   4.495   4.495   4.496
  4.503   4.503   4.530   4.530   4.580   4.584   4.592   4.593
  4.594   4.597   4.751   4.752   4.754   4.758   4.778   4.780
  4.799   4.800   4.800   4.801   4.837   4.838   4.839   4.842
  4.867   4.880   5.003   5.003   5.011   5.012   5.017   5.020
  5.041   5.043   5.152   5.154   5.157   5.159   5.233   5.234
  5.235   5.236   5.313   5.320   5.560   5.560   5.598   5.599
  5.600   5.600   5.615   5.619   5.921   5.934   6.102   6.103
  6.106   6.109   6.691   6.692   6.694   6.698   8.934   8.958
 17.010  17.053
 --------------------------------------------------------------
 
          Ground-State Mulliken Net Atomic Charges

     Atom                 Charge (a.u.)
  ----------------------------------------
      1 Si                    1.324369
      2 H                    -0.374881
      3 H                    -0.377125
      4 H                    -0.376566
      5 C                    -1.049287
      6 H                     0.280299
      7 H                     0.286741
      8 H                     0.286415
      9 Si                    1.321763
     10 H                    -0.374358
     11 H                    -0.377953
     12 H                    -0.375407
     13 C                    -1.052820
     14 H                     0.281784
     15 H                     0.285309
     16 H                     0.291711
  ----------------------------------------
  Sum of atomic charges =    -0.000006

 -----------------------------------------------------------------
                    Cartesian Multipole Moments
 -----------------------------------------------------------------
    Charge (ESU x 10^10)
                -0.0000
    Dipole Moment (Debye)
         X      -0.0039      Y       0.0221      Z      -0.0006
       Tot       0.0224
    Quadrupole Moments (Debye-Ang)
        XX     -59.8915     XY      -1.5994     YY     -46.5717
        XZ       0.0046     YZ       0.0027     ZZ     -46.5621
    Octopole Moments (Debye-Ang^2)
       XXX      -0.2289    XXY       0.3569    XYY       0.3644
       YYY      -1.8665    XXZ       0.0745    XYZ      -0.3178
       YYZ       1.2131    XZZ      -0.5135    YZZ       2.3283
       ZZZ      -1.2942
    Hexadecapole Moments (Debye-Ang^3)
      XXXX   -6981.1758   XXXY     -12.4520   XXYY   -1115.6067
      XYYY     -24.7553   YYYY    -125.8040   XXXZ      -1.7057
      XXYZ       5.0696   XYYZ     -10.6242   YYYZ       0.4450
      XXZZ   -1125.4609   XYZZ      -0.2823   YYZZ     -40.2062
      XZZZ      11.1806   YZZZ      -0.1499   ZZZZ    -114.1534
 -----------------------------------------------------------------
Archival summary:
1\1\mm2.localdomain\SP\MP2\BasisUnspecified\i2212\xuedong\WedJul319:51:392019WedJul319:51:392019\0\\#,MP2,BasisUnspecified,\\0,1\Si\H,1,1.48089\H,1,1.48091,2,108.381\H,1,1.48092,2,108.378,3,117.417,0\C,1,1.87808,2,110.567,3,-121.294,0\H,5,1.08851,1,110.927,2,-179.937,0\H,5,1.08869,1,110.845,2,-59.996,0\H,5,1.08875,1,110.826,2,59.9946,0\H,6,5.76864,5,121.197,1,-179.397,0\C,9,1.08863,6,109.126,5,-85.8073,0\H,10,1.08858,9,107.96,6,49.1761,0\H,10,1.08878,9,108.118,6,-67.5253,0\Si,10,1.87817,9,110.862,6,170.837,0\H,13,1.48088,10,110.546,9,60.0552,0\H,13,1.48088,10,110.544,9,-179.931,0\H,13,1.48091,10,110.522,9,-59.9389,0\\HF=-660.646289\MP2=-661.293554\\@

 Total job time:  287.84s(wall), 1700.05s(cpu) 
 Wed Jul  3 19:51:39 2019

        *************************************************************
        *                                                           *
        *  Thank you very much for using Q-Chem.  Have a nice day.  *
        *                                                           *
        *************************************************************



Running Job 2 of 3 ../qm_inp/SiH3CH3_SiH3CH3_con3.200.qcinp
qchem ../qm_inp/SiH3CH3_SiH3CH3_con3.200.qcinp_35149.1 /scratch/xuedong/qchem35149/ 1
/home/qwang/software/qchem5.1.2/exe/qcprog.exe_s ../qm_inp/SiH3CH3_SiH3CH3_con3.200.qcinp_35149.1 /scratch/xuedong/qchem35149/
Check license passed

                  Welcome to Q-Chem
     A Quantum Leap Into The Future Of Chemistry


 Q-Chem 5.1, Q-Chem, Inc., Pleasanton, CA (2018)

 Yihan Shao,  Zhengting Gan,  E. Epifanovsky,  A. T. B. Gilbert,  M. Wormit,  
 J. Kussmann,  A. W. Lange,  A. Behn,  Jia Deng,  Xintian Feng,  D. Ghosh,  
 M. Goldey,  P. R. Horn,  L. D. Jacobson,  I. Kaliman,  T. Kus,  A. Landau,  
 Jie Liu,  E. I. Proynov,  R. M. Richard,  R. P. Steele,  E. J. Sundstrom,  
 H. L. Woodcock III,  P. M. Zimmerman,  D. Zuev,  B. Albrecht,  E. Alguire,  
 S. A. Baeppler,  D. Barton,  Z. Benda,  Y. A. Bernard,  E. J. Berquist,  
 K. B. Bravaya,  H. Burton,  D. Casanova,  Chun-Min Chang,  Yunqing Chen,  
 A. Chien,  K. D. Closser,  M. P. Coons,  S. Coriani,  S. Dasgupta,  
 A. L. Dempwolff,  M. Diedenhofen,  Hainam Do,  R. G. Edgar,  Po-Tung Fang,  
 S. Faraji,  S. Fatehi,  Qingguo Feng,  K. D. Fenk,  J. Fosso-Tande,  
 J. Gayvert,  Qinghui Ge,  A. Ghysels,  G. Gidofalvi,  J. Gomes,  
 J. Gonthier,  A. Gunina,  D. Hait,  M. W. D. Hanson-Heine,  
 P. H. P. Harbach,  A. W. Hauser,  J. E. Herr,  E. G. Hohenstein,  
 Z. C. Holden,  Kerwin Hui,  B. C. Huynh,  T.-C. Jagau,  Hyunjun Ji,  
 B. Kaduk,  K. Khistyaev,  Jaehoon Kim,  P. Klunzinger,  K. Koh,  
 D. Kosenkov,  L. Koulias,  T. Kowalczyk,  C. M. Krauter,  A. Kunitsa,  
 Ka Un Lao,  A. Laurent,  K. V. Lawler,  Joonho Lee,  D. Lefrancois,  
 S. Lehtola,  D. S. Levine,  Yi-Pei Li,  You-Sheng Lin,  Fenglai Liu,  
 E. Livshits,  A. Luenser,  P. Manohar,  E. Mansoor,  S. F. Manzer,  
 Shan-Ping Mao,  Yuezhi Mao,  N. Mardirossian,  A. V. Marenich,  
 T. Markovich,  L. A. Martinez-Martinez,  S. A. Maurer,  N. J. Mayhall,  
 S. C. McKenzie,  J.-M. Mewes,  A. F. Morrison,  J. W. Mullinax,  K. Nanda,  
 T. S. Nguyen-Beck,  R. Olivares-Amaya,  J. A. Parkhill,  T. M. Perrine,  
 F. Plasser,  P. Pokhilko,  S. Prager,  A. Prociuk,  E. Ramos,  D. R. Rehn,  
 F. Rob,  M. Schneider,  N. Sergueev,  S. M. Sharada,  S. Sharma,  
 D. W. Small,  T. Stauch,  T. Stein,  Yu-Chuan Su,  A. J. W. Thom,  
 A. Tkatchenko,  T. Tsuchimochi,  N. M. Tubman,  L. Vogt,  M. L. Vidal,  
 O. Vydrov,  M. A. Watson,  J. Wenzel,  M. de Wergifosse,  T. A. Wesolowski,  
 A. White,  J. Witte,  A. Yamada,  Jun Yang,  K. Yao,  S. Yeganeh,  
 S. R. Yost,  Zhi-Qiang You,  A. Zech,  Igor Ying Zhang,  Xing Zhang,  
 Yan Zhao,  Ying Zhu,  B. R. Brooks,  G. K. L. Chan,  C. J. Cramer,  
 M. S. Gordon,  W. J. Hehre,  A. Klamt,  M. W. Schmidt,  C. D. Sherrill,  
 D. G. Truhlar,  A. Aspuru-Guzik,  R. Baer,  A. T. Bell,  N. A. Besley,  
 Jeng-Da Chai,  A. E. DePrince, III,  R. A. DiStasio Jr.,  A. Dreuw,  
 B. D. Dunietz,  T. R. Furlani,  Chao-Ping Hsu,  Yousung Jung,  Jing Kong,  
 D. S. Lambrecht,  WanZhen Liang,  C. Ochsenfeld,  V. A. Rassolov,  
 L. V. Slipchenko,  J. E. Subotnik,  T. Van Voorhis,  J. M. Herbert,  
 A. I. Krylov,  P. M. W. Gill,  M. Head-Gordon

 Contributors to earlier versions of Q-Chem not listed above: 
 R. D. Adamson,  B. Austin,  J. Baker,  G. J. O. Beran,  K. Brandhorst,  
 S. T. Brown,  E. F. C. Byrd,  A. K. Chakraborty,  C.-L. Cheng,  
 Siu Hung Chien,  D. M. Chipman,  D. L. Crittenden,  H. Dachsel,  
 R. J. Doerksen,  A. D. Dutoi,  L. Fusti-Molnar,  W. A. Goddard III,  
 A. Golubeva-Zadorozhnaya,  S. R. Gwaltney,  G. Hawkins,  A. Heyden,  
 S. Hirata,  G. Kedziora,  F. J. Keil,  C. Kelley,  Jihan Kim,  R. A. King,  
 R. Z. Khaliullin,  P. P. Korambath,  W. Kurlancheek,  A. M. Lee,  M. S. Lee,  
 S. V. Levchenko,  Ching Yeh Lin,  D. Liotard,  R. C. Lochan,  I. Lotan,  
 P. E. Maslen,  N. Nair,  D. P. O'Neill,  D. Neuhauser,  E. Neuscamman,  
 C. M. Oana,  R. Olson,  B. Peters,  R. Peverati,  P. A. Pieniazek,  
 Y. M. Rhee,  J. Ritchie,  M. A. Rohrdanz,  E. Rosta,  N. J. Russ,  
 H. F. Schaefer III,  N. E. Schultz,  N. Shenvi,  A. C. Simmonett,  A. Sodt,  
 D. Stuck,  K. S. Thanthiriwatte,  V. Vanovschi,  Tao Wang,  A. Warshel,  
 C. F. Williams,  Q. Wu,  X. Xu,  W. Zhang

 Please cite Q-Chem as follows:
 Y. Shao et al., Mol. Phys. 113, 184-215 (2015)
 DOI: 10.1080/00268976.2014.952696

 Q-Chem 5.1.2 for Intel X86 EM64T Linux

 Parts of Q-Chem use Armadillo 8.300.2 (Tropical Shenanigans).
 http://arma.sourceforge.net/

 Q-Chem begins on Wed Jul  3 19:51:39 2019  

Host: 
0

     Scratch files written to /scratch/xuedong/qchem35149//
 Dec218 |scratch|qcdevops|jenkins|workspace|build_RNUM 6581   
Processing $rem in /home/qwang/software/qchem5.1.2/config/preferences.
 MEM_TOTAL  4000 
Core orbitals will be frozen
Input Ideriv = 1
Curr. Ideriv = -1
Max.  Ideriv = 1

Checking the input file for inconsistencies... 	...done.

--------------------------------------------------------------
User input:
--------------------------------------------------------------

$molecule
0 1
Si     3.762272567     0.100944777     0.006072646
H     3.981291986     1.564414477     0.064186564
H     4.389924271    -0.416429655    -1.231422106
H     4.439607953    -0.519141536     1.167849490
C     1.925645521    -0.291305561     0.027271718
H     1.759401550    -1.366486120    -0.015128601
H     1.421772543     0.162315456    -0.824405717
H     1.458679937     0.087942478     0.934592371
@Si   -6.688570710    -0.095603831     0.005566717
@H    -6.918264031    -1.374506468    -0.704915044
@H    -7.492023150     0.957351929    -0.656843464
@H    -7.169012016    -0.242600256     1.398647814
@C    -4.864973623     0.352855509    -0.018427621
@H    -4.690591878     1.292674779     0.502823477
@H    -4.506309034     0.462073325    -1.040516896
@H    -4.268605322    -0.418046002     0.466244641
$end

$rem
BASIS = aug-cc-pVTZ
JOB_TYPE  =  SP
METHOD  =  MP2
SCF_MAX_CYCLES  =  200
$end

--------------------------------------------------------------
 ----------------------------------------------------------------
             Standard Nuclear Orientation (Angstroms)
    I     Atom           X                Y                Z
 ----------------------------------------------------------------
    1      Si      3.7622725670     0.1009447770     0.0060726460
    2      H       3.9812919860     1.5644144770     0.0641865640
    3      H       4.3899242710    -0.4164296550    -1.2314221060
    4      H       4.4396079530    -0.5191415360     1.1678494900
    5      C       1.9256455210    -0.2913055610     0.0272717180
    6      H       1.7594015500    -1.3664861200    -0.0151286010
    7      H       1.4217725430     0.1623154560    -0.8244057170
    8      H       1.4586799370     0.0879424780     0.9345923710
    9      GH     -6.6885707100    -0.0956038310     0.0055667170
   10      GH     -6.9182640310    -1.3745064680    -0.7049150440
   11      GH     -7.4920231500     0.9573519290    -0.6568434640
   12      GH     -7.1690120160    -0.2426002560     1.3986478140
   13      GH     -4.8649736230     0.3528555090    -0.0184276210
   14      GH     -4.6905918780     1.2926747790     0.5028234770
   15      GH     -4.5063090340     0.4620733250    -1.0405168960
   16      GH     -4.2686053220    -0.4180460020     0.4662446410
 ----------------------------------------------------------------
 Nuclear Repulsion Energy =    62.8465305472 hartrees
 There are       13 alpha and       13 beta electrons
 Requested basis set is aug-cc-pVTZ
 There are 168 shells and 468 basis functions

 Total QAlloc Memory Limit   4000 MB
 Mega-Array Size       188 MB
 MEM_STATIC part       192 MB
 A cutoff of  1.0D-08 yielded   9210 shell pairs
 There are     65710 function pairs (     82686 Cartesian)
 
 -------------------------------------------------------
 OpenMP Integral Computing Module                       
 Release: version 1.0, May 2013, Q-Chem Inc. Pittsburgh 
 -------------------------------------------------------
 Integral Job Info:
 Integral job number is                      11
 Integral operator is                         1
 short-range coefficients                     0
 long-range coefficients              100000000
 Omega coefficients                           0
 if combine SR and LR in K                    0
 Integral screening is                        0
 Integral computing path is                   2
 max size of driver memory is            800000
 size of driver memory is                776718
 size of scratch memory is             29531563
 max col of scratch BK array              10000
 max len of scratch array in speh3          662
 max len of scratch index in speh4           32
 max int batch size is                      520
 min int batch size is                       52
 fixed nKL is                                31
 max L of basis functions is                  3
 order of int derivative is                   0
 number of shells is                        168
 number of basis is                         528
 number of cartesian basis is               528
 number of contracted shell pairs          9210
 number of primitive shell pairs          25733
 maxK2 (contraction) of shell pair          169
 max number of K2 of shell pair               1
 max number of CS2 of shell pair           1796
 max number of PS2 of shell pair           2314
 mem total for path MDJ                  715436
 -------------------------------------------------------
 Smallest overlap matrix eigenvalue = 1.45E-05

 Q-Chem warning in module stvman/mkSTV.C, line 306:

 Overlap eigenvalue is smaller than square root of threshold
 Use THRESH >= 12 to get rid of this warning


 Scale SEOQF with 1.000000e-02/1.000000e-01/1.000000e-01

 Standard Electronic Orientation quadrupole field applied
 Nucleus-field energy     =     0.0000000009 hartrees
 Guess from superposition of atomic densities
 Warning:  Energy on first SCF cycle will be non-variational
 SAD guess density has 26.000000 electrons

 -----------------------------------------------------------------------
  General SCF calculation program by
  Eric Jon Sundstrom, Paul Horn, Yuezhi Mao, Dmitri Zuev, Alec White,
  David Stuck, Shaama M.S., Shane Yost, Joonho Lee, David Small,
  Daniel Levine, Susi Lehtola, Hugh Burton, Evgeny Epifanovsky
 -----------------------------------------------------------------------
 Hartree-Fock
 using 6 threads for integral computing
 -------------------------------------------------------
 OpenMP Integral computing Module                
 Release: version 1.0, May 2013, Q-Chem Inc. Pittsburgh 
 -------------------------------------------------------
 A restricted SCF calculation will be
 performed using DIIS
 SCF converges when DIIS error is below 1.0e-05
 ---------------------------------------
  Cycle       Energy         DIIS error
 ---------------------------------------
    1    -330.4723929616      1.04e-02  
    2    -330.2950449419      7.86e-04  
    3    -330.3203016748      2.33e-04  
    4    -330.3227741624      9.49e-05  
    5    -330.3231405506      1.18e-05  
    6    -330.3231516881      2.48e-06  Convergence criterion met
 ---------------------------------------
 SCF time:   CPU 247.72s  wall 41.00s 
 SCF   energy in the final basis set =     -330.3231516881
 Total energy in the final basis set =     -330.3231516881
 
 Components of the MP2 correlation energy:
        aaaa  correlation energy =        -0.0278473950 au
        abab  correlation energy =        -0.2679121228 au
        bbbb  correlation energy =        -0.0278473950 au
        non-Brillouin singles    =        -0.0000000000 au

 Total  MP2   correlation energy =                    -0.32360691 au
        MP2         total energy =                  -330.64675860 au
 
 --------------------------------------------------------------
 
                    Orbital Energies (a.u.)
 --------------------------------------------------------------
 
 Alpha MOs
 -- Occupied --
-68.766 -11.208  -6.115  -4.221  -4.221  -4.220  -0.950  -0.699
 -0.565  -0.565  -0.469  -0.469  -0.455
 -- Virtual --
  0.018   0.031   0.038   0.038   0.040   0.048   0.049   0.051
  0.065   0.066   0.070   0.071   0.072   0.077   0.081   0.086
  0.093   0.098   0.099   0.115   0.121   0.127   0.135   0.136
  0.142   0.146   0.148   0.158   0.161   0.167   0.180   0.184
  0.189   0.191   0.199   0.202   0.205   0.210   0.215   0.221
  0.227   0.231   0.243   0.252   0.259   0.260   0.275   0.280
  0.281   0.287   0.294   0.303   0.306   0.310   0.313   0.324
  0.326   0.329   0.333   0.333   0.338   0.345   0.347   0.351
  0.354   0.360   0.368   0.369   0.371   0.378   0.383   0.389
  0.393   0.409   0.417   0.421   0.426   0.427   0.433   0.439
  0.443   0.448   0.455   0.457   0.463   0.468   0.471   0.476
  0.479   0.480   0.486   0.487   0.490   0.497   0.499   0.507
  0.533   0.536   0.542   0.547   0.559   0.566   0.593   0.609
  0.610   0.615   0.645   0.646   0.648   0.651   0.667   0.672
  0.676   0.677   0.681   0.684   0.691   0.692   0.694   0.698
  0.708   0.743   0.748   0.749   0.763   0.791   0.796   0.810
  0.819   0.820   0.828   0.830   0.853   0.860   0.872   0.873
  0.875   0.882   0.897   0.924   0.926   0.934   0.953   0.957
  0.960   0.961   0.964   0.967   0.998   1.009   1.012   1.014
  1.018   1.027   1.031   1.036   1.041   1.065   1.068   1.072
  1.074   1.077   1.090   1.093   1.099   1.107   1.114   1.121
  1.130   1.149   1.149   1.155   1.158   1.159   1.160   1.161
  1.163   1.164   1.179   1.180   1.182   1.189   1.193   1.193
  1.195   1.198   1.199   1.225   1.225   1.258   1.260   1.270
  1.281   1.283   1.292   1.335   1.335   1.339   1.343   1.344
  1.344   1.346   1.355   1.376   1.377   1.383   1.384   1.390
  1.395   1.409   1.411   1.421   1.423   1.427   1.429   1.430
  1.446   1.448   1.457   1.479   1.482   1.518   1.519   1.530
  1.538   1.570   1.591   1.594   1.617   1.617   1.622   1.629
  1.646   1.648   1.670   1.685   1.686   1.690   1.695   1.733
  1.754   1.760   1.763   1.784   1.797   1.830   1.831   1.850
  1.853   1.856   1.860   1.893   1.895   1.907   1.908   1.920
  1.993   1.998   2.005   2.007   2.018   2.020   2.041   2.045
  2.062   2.063   2.096   2.113   2.126   2.130   2.133   2.135
  2.156   2.158   2.218   2.259   2.262   2.276   2.276   2.307
  2.320   2.341   2.344   2.355   2.359   2.394   2.457   2.458
  2.497   2.517   2.530   2.531   2.671   2.674   2.747   2.770
  2.772   2.773   2.992   2.992   3.087   3.087   3.089   3.145
  3.285   3.413   3.415   3.429   3.561   3.562   3.613   3.630
  3.657   3.657   3.709   3.709   3.754   3.755   3.827   3.827
  3.832   3.918   3.941   3.943   3.993   4.004   4.030   4.031
  4.080   4.086   4.092   4.099   4.112   4.114   4.122   4.123
  4.130   4.132   4.151   4.163   4.163   4.194   4.204   4.205
  4.215   4.216   4.244   4.268   4.269   4.331   4.331   4.336
  4.345   4.357   4.359   4.361   4.393   4.400   4.401   4.425
  4.470   4.471   4.496   4.496   4.503   4.526   4.531   4.533
  4.537   4.564   4.584   4.593   4.595   4.613   4.615   4.635
  4.651   4.652   4.717   4.718   4.753   4.756   4.776   4.780
  4.800   4.801   4.839   4.841   4.869   4.876   4.883   4.883
  4.908   4.908   5.003   5.015   5.016   5.043   5.051   5.154
  5.156   5.156   5.157   5.214   5.222   5.235   5.236   5.277
  5.279   5.317   5.329   5.345   5.346   5.347   5.446   5.448
  5.451   5.483   5.484   5.561   5.599   5.601   5.618   5.637
  5.641   5.735   5.928   6.039   6.103   6.108   6.134   6.135
  6.135   6.175   6.185   6.186   6.692   6.696   6.743   6.746
  7.053   7.459   7.799   7.803   8.144   8.146   8.947  10.260
 14.943  17.036  20.428  20.429  20.792  51.352 106.970
 --------------------------------------------------------------
 
          Ground-State Mulliken Net Atomic Charges

     Atom                 Charge (a.u.)
  ----------------------------------------
      1 Si                    1.324440
      2 H                    -0.374983
      3 H                    -0.377258
      4 H                    -0.376721
      5 C                    -1.048867
      6 H                     0.280350
      7 H                     0.286781
      8 H                     0.286565
      9 GH                   -0.000065
     10 GH                   -0.000005
     11 GH                    0.000003
     12 GH                   -0.000003
     13 GH                   -0.000121
     14 GH                    0.000050
     15 GH                    0.000001
     16 GH                   -0.000168
  ----------------------------------------
  Sum of atomic charges =    -0.000003

 -----------------------------------------------------------------
                    Cartesian Multipole Moments
 -----------------------------------------------------------------
    Charge (ESU x 10^10)
                -0.0000
    Dipole Moment (Debye)
         X      -0.6926      Y      -0.1486      Z       0.0081
       Tot       0.7084
    Quadrupole Moments (Debye-Ang)
        XX     -28.0080     XY      -0.5296     YY     -23.2872
        XZ       0.0214     YZ      -0.0003     ZZ     -23.2823
    Octopole Moments (Debye-Ang^2)
       XXX    -245.6358    XXY      -0.2861    XYY     -75.6404
       YYY      -1.5731    XXZ      -0.3291    XYZ       0.0518
       YYZ      -0.5220    XZZ     -76.7403    YZZ       1.9258
       ZZZ      -0.5473
    Hexadecapole Moments (Debye-Ang^3)
      XXXX   -1685.5525   XXXY      -3.6924   XXYY    -284.5913
      XYYY     -16.8236   YYYY     -61.8443   XXXZ      -2.8474
      XXYZ       0.3878   XYYZ      -1.4362   YYYZ       0.1521
      XXZZ    -290.4977   XYZZ       1.9148   YYZZ     -20.0850
      XZZZ      -1.2245   YZZZ       0.2068   ZZZZ     -57.1015
 -----------------------------------------------------------------
Archival summary:
1\1\mm2.localdomain\SP\MP2\BasisUnspecified\i116h8\xuedong\WedJul319:54:172019WedJul319:54:172019\0\\#,MP2,BasisUnspecified,\\0,1\Si\H,1,1.48088\H,1,1.48088,2,108.387\H,1,1.48091,2,108.383,3,-117.43,0\C,1,1.87817,2,110.546,3,121.3,0\H,5,1.08858,1,110.902,2,179.974,0\H,5,1.08863,1,110.862,2,60.0552,0\H,5,1.08878,1,110.8,2,-59.9955,0\Gh,7,5.76864,5,109.126,1,170.837,0\Gh,9,1.08851,7,121.197,5,-85.8073,0\Gh,10,1.08869,9,107.974,7,58.9639,0\Gh,10,1.08875,9,108.084,7,-57.7091,0\Gh,10,1.87808,9,110.927,7,-179.397,0\Gh,13,1.48089,10,110.567,9,-179.937,0\Gh,13,1.48091,10,110.532,9,60.0505,0\Gh,13,1.48092,10,110.529,9,-59.9311,0\\HF=-330.323152\MP2=-330.646759\\@

 Total job time:  157.24s(wall), 936.05s(cpu) 
 Wed Jul  3 19:54:17 2019

        *************************************************************
        *                                                           *
        *  Thank you very much for using Q-Chem.  Have a nice day.  *
        *                                                           *
        *************************************************************



Running Job 3 of 3 ../qm_inp/SiH3CH3_SiH3CH3_con3.200.qcinp
qchem ../qm_inp/SiH3CH3_SiH3CH3_con3.200.qcinp_35149.2 /scratch/xuedong/qchem35149/ 1
/home/qwang/software/qchem5.1.2/exe/qcprog.exe_s ../qm_inp/SiH3CH3_SiH3CH3_con3.200.qcinp_35149.2 /scratch/xuedong/qchem35149/
Check license passed

                  Welcome to Q-Chem
     A Quantum Leap Into The Future Of Chemistry


 Q-Chem 5.1, Q-Chem, Inc., Pleasanton, CA (2018)

 Yihan Shao,  Zhengting Gan,  E. Epifanovsky,  A. T. B. Gilbert,  M. Wormit,  
 J. Kussmann,  A. W. Lange,  A. Behn,  Jia Deng,  Xintian Feng,  D. Ghosh,  
 M. Goldey,  P. R. Horn,  L. D. Jacobson,  I. Kaliman,  T. Kus,  A. Landau,  
 Jie Liu,  E. I. Proynov,  R. M. Richard,  R. P. Steele,  E. J. Sundstrom,  
 H. L. Woodcock III,  P. M. Zimmerman,  D. Zuev,  B. Albrecht,  E. Alguire,  
 S. A. Baeppler,  D. Barton,  Z. Benda,  Y. A. Bernard,  E. J. Berquist,  
 K. B. Bravaya,  H. Burton,  D. Casanova,  Chun-Min Chang,  Yunqing Chen,  
 A. Chien,  K. D. Closser,  M. P. Coons,  S. Coriani,  S. Dasgupta,  
 A. L. Dempwolff,  M. Diedenhofen,  Hainam Do,  R. G. Edgar,  Po-Tung Fang,  
 S. Faraji,  S. Fatehi,  Qingguo Feng,  K. D. Fenk,  J. Fosso-Tande,  
 J. Gayvert,  Qinghui Ge,  A. Ghysels,  G. Gidofalvi,  J. Gomes,  
 J. Gonthier,  A. Gunina,  D. Hait,  M. W. D. Hanson-Heine,  
 P. H. P. Harbach,  A. W. Hauser,  J. E. Herr,  E. G. Hohenstein,  
 Z. C. Holden,  Kerwin Hui,  B. C. Huynh,  T.-C. Jagau,  Hyunjun Ji,  
 B. Kaduk,  K. Khistyaev,  Jaehoon Kim,  P. Klunzinger,  K. Koh,  
 D. Kosenkov,  L. Koulias,  T. Kowalczyk,  C. M. Krauter,  A. Kunitsa,  
 Ka Un Lao,  A. Laurent,  K. V. Lawler,  Joonho Lee,  D. Lefrancois,  
 S. Lehtola,  D. S. Levine,  Yi-Pei Li,  You-Sheng Lin,  Fenglai Liu,  
 E. Livshits,  A. Luenser,  P. Manohar,  E. Mansoor,  S. F. Manzer,  
 Shan-Ping Mao,  Yuezhi Mao,  N. Mardirossian,  A. V. Marenich,  
 T. Markovich,  L. A. Martinez-Martinez,  S. A. Maurer,  N. J. Mayhall,  
 S. C. McKenzie,  J.-M. Mewes,  A. F. Morrison,  J. W. Mullinax,  K. Nanda,  
 T. S. Nguyen-Beck,  R. Olivares-Amaya,  J. A. Parkhill,  T. M. Perrine,  
 F. Plasser,  P. Pokhilko,  S. Prager,  A. Prociuk,  E. Ramos,  D. R. Rehn,  
 F. Rob,  M. Schneider,  N. Sergueev,  S. M. Sharada,  S. Sharma,  
 D. W. Small,  T. Stauch,  T. Stein,  Yu-Chuan Su,  A. J. W. Thom,  
 A. Tkatchenko,  T. Tsuchimochi,  N. M. Tubman,  L. Vogt,  M. L. Vidal,  
 O. Vydrov,  M. A. Watson,  J. Wenzel,  M. de Wergifosse,  T. A. Wesolowski,  
 A. White,  J. Witte,  A. Yamada,  Jun Yang,  K. Yao,  S. Yeganeh,  
 S. R. Yost,  Zhi-Qiang You,  A. Zech,  Igor Ying Zhang,  Xing Zhang,  
 Yan Zhao,  Ying Zhu,  B. R. Brooks,  G. K. L. Chan,  C. J. Cramer,  
 M. S. Gordon,  W. J. Hehre,  A. Klamt,  M. W. Schmidt,  C. D. Sherrill,  
 D. G. Truhlar,  A. Aspuru-Guzik,  R. Baer,  A. T. Bell,  N. A. Besley,  
 Jeng-Da Chai,  A. E. DePrince, III,  R. A. DiStasio Jr.,  A. Dreuw,  
 B. D. Dunietz,  T. R. Furlani,  Chao-Ping Hsu,  Yousung Jung,  Jing Kong,  
 D. S. Lambrecht,  WanZhen Liang,  C. Ochsenfeld,  V. A. Rassolov,  
 L. V. Slipchenko,  J. E. Subotnik,  T. Van Voorhis,  J. M. Herbert,  
 A. I. Krylov,  P. M. W. Gill,  M. Head-Gordon

 Contributors to earlier versions of Q-Chem not listed above: 
 R. D. Adamson,  B. Austin,  J. Baker,  G. J. O. Beran,  K. Brandhorst,  
 S. T. Brown,  E. F. C. Byrd,  A. K. Chakraborty,  C.-L. Cheng,  
 Siu Hung Chien,  D. M. Chipman,  D. L. Crittenden,  H. Dachsel,  
 R. J. Doerksen,  A. D. Dutoi,  L. Fusti-Molnar,  W. A. Goddard III,  
 A. Golubeva-Zadorozhnaya,  S. R. Gwaltney,  G. Hawkins,  A. Heyden,  
 S. Hirata,  G. Kedziora,  F. J. Keil,  C. Kelley,  Jihan Kim,  R. A. King,  
 R. Z. Khaliullin,  P. P. Korambath,  W. Kurlancheek,  A. M. Lee,  M. S. Lee,  
 S. V. Levchenko,  Ching Yeh Lin,  D. Liotard,  R. C. Lochan,  I. Lotan,  
 P. E. Maslen,  N. Nair,  D. P. O'Neill,  D. Neuhauser,  E. Neuscamman,  
 C. M. Oana,  R. Olson,  B. Peters,  R. Peverati,  P. A. Pieniazek,  
 Y. M. Rhee,  J. Ritchie,  M. A. Rohrdanz,  E. Rosta,  N. J. Russ,  
 H. F. Schaefer III,  N. E. Schultz,  N. Shenvi,  A. C. Simmonett,  A. Sodt,  
 D. Stuck,  K. S. Thanthiriwatte,  V. Vanovschi,  Tao Wang,  A. Warshel,  
 C. F. Williams,  Q. Wu,  X. Xu,  W. Zhang

 Please cite Q-Chem as follows:
 Y. Shao et al., Mol. Phys. 113, 184-215 (2015)
 DOI: 10.1080/00268976.2014.952696

 Q-Chem 5.1.2 for Intel X86 EM64T Linux

 Parts of Q-Chem use Armadillo 8.300.2 (Tropical Shenanigans).
 http://arma.sourceforge.net/

 Q-Chem begins on Wed Jul  3 19:54:17 2019  

Host: 
0

     Scratch files written to /scratch/xuedong/qchem35149//
 Dec218 |scratch|qcdevops|jenkins|workspace|build_RNUM 6581   
Processing $rem in /home/qwang/software/qchem5.1.2/config/preferences.
 MEM_TOTAL  4000 
Core orbitals will be frozen
Input Ideriv = 1
Curr. Ideriv = -1
Max.  Ideriv = 1

Checking the input file for inconsistencies... 	...done.

--------------------------------------------------------------
User input:
--------------------------------------------------------------

$molecule
0 1
@Si    3.762272567     0.100944777     0.006072646
@H     3.981291986     1.564414477     0.064186564
@H     4.389924271    -0.416429655    -1.231422106
@H     4.439607953    -0.519141536     1.167849490
@C     1.925645521    -0.291305561     0.027271718
@H     1.759401550    -1.366486120    -0.015128601
@H     1.421772543     0.162315456    -0.824405717
@H     1.458679937     0.087942478     0.934592371
Si   -6.688570710    -0.095603831     0.005566717
H    -6.918264031    -1.374506468    -0.704915044
H    -7.492023150     0.957351929    -0.656843464
H    -7.169012016    -0.242600256     1.398647814
C    -4.864973623     0.352855509    -0.018427621
H    -4.690591878     1.292674779     0.502823477
H    -4.506309034     0.462073325    -1.040516896
H    -4.268605322    -0.418046002     0.466244641
$end

$rem
BASIS = aug-cc-pVTZ
JOB_TYPE  =  SP
METHOD  =  MP2
SCF_MAX_CYCLES  =  200
$end

--------------------------------------------------------------
 ----------------------------------------------------------------
             Standard Nuclear Orientation (Angstroms)
    I     Atom           X                Y                Z
 ----------------------------------------------------------------
    1      GH      3.7622725670     0.1009447770     0.0060726460
    2      GH      3.9812919860     1.5644144770     0.0641865640
    3      GH      4.3899242710    -0.4164296550    -1.2314221060
    4      GH      4.4396079530    -0.5191415360     1.1678494900
    5      GH      1.9256455210    -0.2913055610     0.0272717180
    6      GH      1.7594015500    -1.3664861200    -0.0151286010
    7      GH      1.4217725430     0.1623154560    -0.8244057170
    8      GH      1.4586799370     0.0879424780     0.9345923710
    9      Si     -6.6885707100    -0.0956038310     0.0055667170
   10      H      -6.9182640310    -1.3745064680    -0.7049150440
   11      H      -7.4920231500     0.9573519290    -0.6568434640
   12      H      -7.1690120160    -0.2426002560     1.3986478140
   13      C      -4.8649736230     0.3528555090    -0.0184276210
   14      H      -4.6905918780     1.2926747790     0.5028234770
   15      H      -4.5063090340     0.4620733250    -1.0405168960
   16      H      -4.2686053220    -0.4180460020     0.4662446410
 ----------------------------------------------------------------
 Nuclear Repulsion Energy =    62.8472945241 hartrees
 There are       13 alpha and       13 beta electrons
 Requested basis set is aug-cc-pVTZ
 There are 168 shells and 468 basis functions

 Total QAlloc Memory Limit   4000 MB
 Mega-Array Size       188 MB
 MEM_STATIC part       192 MB
 A cutoff of  1.0D-08 yielded   9210 shell pairs
 There are     65710 function pairs (     82686 Cartesian)
 
 -------------------------------------------------------
 OpenMP Integral Computing Module                       
 Release: version 1.0, May 2013, Q-Chem Inc. Pittsburgh 
 -------------------------------------------------------
 Integral Job Info:
 Integral job number is                      11
 Integral operator is                         1
 short-range coefficients                     0
 long-range coefficients              100000000
 Omega coefficients                           0
 if combine SR and LR in K                    0
 Integral screening is                        0
 Integral computing path is                   2
 max size of driver memory is            800000
 size of driver memory is                776718
 size of scratch memory is             29531563
 max col of scratch BK array              10000
 max len of scratch array in speh3          662
 max len of scratch index in speh4           32
 max int batch size is                      520
 min int batch size is                       52
 fixed nKL is                                31
 max L of basis functions is                  3
 order of int derivative is                   0
 number of shells is                        168
 number of basis is                         528
 number of cartesian basis is               528
 number of contracted shell pairs          9210
 number of primitive shell pairs          25733
 maxK2 (contraction) of shell pair          169
 max number of K2 of shell pair               1
 max number of CS2 of shell pair           1796
 max number of PS2 of shell pair           2314
 mem total for path MDJ                  715436
 -------------------------------------------------------
 Smallest overlap matrix eigenvalue = 1.45E-05

 Q-Chem warning in module stvman/mkSTV.C, line 306:

 Overlap eigenvalue is smaller than square root of threshold
 Use THRESH >= 12 to get rid of this warning


 Scale SEOQF with 1.000000e-02/1.000000e-01/1.000000e-01

 Standard Electronic Orientation quadrupole field applied
 Nucleus-field energy     =     0.0000000035 hartrees
 Guess from superposition of atomic densities
 Warning:  Energy on first SCF cycle will be non-variational
 SAD guess density has 26.000000 electrons

 -----------------------------------------------------------------------
  General SCF calculation program by
  Eric Jon Sundstrom, Paul Horn, Yuezhi Mao, Dmitri Zuev, Alec White,
  David Stuck, Shaama M.S., Shane Yost, Joonho Lee, David Small,
  Daniel Levine, Susi Lehtola, Hugh Burton, Evgeny Epifanovsky
 -----------------------------------------------------------------------
 Hartree-Fock
 using 6 threads for integral computing
 -------------------------------------------------------
 OpenMP Integral computing Module                
 Release: version 1.0, May 2013, Q-Chem Inc. Pittsburgh 
 -------------------------------------------------------
 A restricted SCF calculation will be
 performed using DIIS
 SCF converges when DIIS error is below 1.0e-05
 ---------------------------------------
  Cycle       Energy         DIIS error
 ---------------------------------------
    1    -330.4724865576      1.04e-02  
    2    -330.2950463294      7.86e-04  
    3    -330.3203026042      2.33e-04  
    4    -330.3227750085      9.49e-05  
    5    -330.3231413668      1.18e-05  
    6    -330.3231525044      2.48e-06  Convergence criterion met
 ---------------------------------------
 SCF time:   CPU 247.33s  wall 41.00s 
 SCF   energy in the final basis set =     -330.3231525044
 Total energy in the final basis set =     -330.3231525044
 
 Components of the MP2 correlation energy:
        aaaa  correlation energy =        -0.0278474079 au
        abab  correlation energy =        -0.2679113322 au
        bbbb  correlation energy =        -0.0278474079 au
        non-Brillouin singles    =        -0.0000000000 au

 Total  MP2   correlation energy =                    -0.32360615 au
        MP2         total energy =                  -330.64675865 au
 
 --------------------------------------------------------------
 
                    Orbital Energies (a.u.)
 --------------------------------------------------------------
 
 Alpha MOs
 -- Occupied --
-68.766 -11.208  -6.115  -4.221  -4.221  -4.220  -0.950  -0.699
 -0.565  -0.565  -0.469  -0.469  -0.455
 -- Virtual --
  0.018   0.031   0.038   0.038   0.040   0.048   0.049   0.051
  0.065   0.066   0.070   0.071   0.072   0.076   0.081   0.086
  0.093   0.098   0.098   0.115   0.121   0.126   0.135   0.136
  0.142   0.146   0.148   0.157   0.161   0.168   0.180   0.183
  0.189   0.192   0.199   0.201   0.205   0.211   0.214   0.222
  0.227   0.232   0.243   0.253   0.259   0.261   0.277   0.280
  0.280   0.288   0.294   0.304   0.306   0.308   0.311   0.321
  0.325   0.331   0.332   0.334   0.341   0.344   0.347   0.354
  0.355   0.361   0.366   0.368   0.370   0.379   0.383   0.387
  0.392   0.410   0.418   0.421   0.425   0.427   0.434   0.439
  0.445   0.447   0.455   0.456   0.461   0.467   0.471   0.476
  0.480   0.480   0.487   0.489   0.490   0.494   0.499   0.511
  0.534   0.534   0.544   0.549   0.558   0.562   0.593   0.608
  0.612   0.617   0.645   0.646   0.648   0.650   0.668   0.672
  0.677   0.678   0.680   0.682   0.689   0.692   0.695   0.705
  0.708   0.744   0.749   0.752   0.760   0.790   0.792   0.810
  0.820   0.822   0.828   0.828   0.854   0.860   0.870   0.873
  0.875   0.880   0.898   0.924   0.926   0.933   0.953   0.957
  0.960   0.961   0.965   0.969   0.998   1.010   1.011   1.015
  1.019   1.025   1.031   1.037   1.040   1.066   1.069   1.071
  1.073   1.079   1.090   1.092   1.101   1.107   1.109   1.121
  1.131   1.148   1.149   1.155   1.158   1.159   1.159   1.160
  1.163   1.164   1.180   1.181   1.182   1.188   1.191   1.193
  1.194   1.198   1.208   1.225   1.225   1.256   1.263   1.270
  1.281   1.282   1.295   1.335   1.335   1.339   1.343   1.344
  1.345   1.346   1.356   1.377   1.377   1.383   1.385   1.390
  1.394   1.409   1.409   1.421   1.424   1.427   1.429   1.430
  1.446   1.447   1.457   1.479   1.479   1.518   1.520   1.530
  1.538   1.566   1.591   1.595   1.617   1.618   1.623   1.629
  1.646   1.648   1.670   1.685   1.686   1.690   1.697   1.734
  1.754   1.760   1.761   1.785   1.796   1.830   1.830   1.850
  1.853   1.856   1.857   1.894   1.895   1.906   1.909   1.920
  1.996   1.999   2.003   2.006   2.020   2.020   2.040   2.045
  2.061   2.065   2.095   2.113   2.127   2.130   2.133   2.135
  2.156   2.157   2.218   2.259   2.260   2.275   2.277   2.306
  2.320   2.341   2.344   2.355   2.360   2.396   2.456   2.458
  2.497   2.517   2.530   2.531   2.671   2.673   2.747   2.769
  2.771   2.774   2.992   2.992   3.087   3.087   3.089   3.145
  3.284   3.413   3.415   3.429   3.561   3.562   3.613   3.629
  3.657   3.658   3.709   3.710   3.754   3.755   3.826   3.827
  3.833   3.918   3.942   3.943   3.993   4.004   4.030   4.031
  4.080   4.086   4.092   4.098   4.112   4.116   4.122   4.123
  4.131   4.131   4.151   4.163   4.163   4.194   4.204   4.205
  4.215   4.216   4.244   4.268   4.268   4.331   4.331   4.336
  4.345   4.357   4.359   4.360   4.393   4.400   4.400   4.424
  4.470   4.470   4.496   4.496   4.503   4.526   4.531   4.533
  4.538   4.564   4.583   4.593   4.596   4.614   4.614   4.635
  4.651   4.651   4.717   4.718   4.753   4.756   4.776   4.780
  4.800   4.801   4.839   4.840   4.869   4.876   4.882   4.883
  4.907   4.908   5.003   5.015   5.017   5.043   5.051   5.155
  5.155   5.157   5.157   5.215   5.223   5.235   5.236   5.276
  5.280   5.317   5.329   5.345   5.346   5.347   5.447   5.448
  5.451   5.483   5.483   5.561   5.600   5.601   5.617   5.637
  5.638   5.735   5.928   6.040   6.104   6.107   6.134   6.135
  6.135   6.177   6.184   6.187   6.693   6.697   6.741   6.746
  7.053   7.459   7.799   7.802   8.144   8.146   8.947  10.262
 14.945  17.028  20.428  20.429  20.793  51.367 106.971
 --------------------------------------------------------------
 
          Ground-State Mulliken Net Atomic Charges

     Atom                 Charge (a.u.)
  ----------------------------------------
      1 GH                   -0.000034
      2 GH                   -0.000005
      3 GH                    0.000001
      4 GH                    0.000001
      5 GH                   -0.000123
      6 GH                    0.000012
      7 GH                   -0.000089
      8 GH                   -0.000104
      9 Si                    1.321976
     10 H                    -0.374489
     11 H                    -0.378153
     12 H                    -0.375575
     13 C                    -1.052405
     14 H                     0.281781
     15 H                     0.285445
     16 H                     0.291757
  ----------------------------------------
  Sum of atomic charges =    -0.000003

 -----------------------------------------------------------------
                    Cartesian Multipole Moments
 -----------------------------------------------------------------
    Charge (ESU x 10^10)
                -0.0000
    Dipole Moment (Debye)
         X       0.6884      Y       0.1705      Z      -0.0099
       Tot       0.7093
    Quadrupole Moments (Debye-Ang)
        XX     -32.0099     XY      -1.0914     YY     -23.2840
        XZ       0.0632     YZ       0.0015     ZZ     -23.2820
    Octopole Moments (Debye-Ang^2)
       XXX     509.2624    XXY       4.6200    XYY     144.1670
       YYY      -1.7552    XXZ      -0.1796    XYZ      -0.4296
       YYZ       1.8464    XZZ     144.5021    YZZ      -0.4120
       ZZZ      -1.8784
    Hexadecapole Moments (Debye-Ang^3)
      XXXX   -6074.1942   XXXY     -15.2832   XXYY    -931.4959
      XYYY      -2.7964   YYYY     -63.8946   XXXZ      -0.7316
      XXYZ       5.1601   XYYZ     -10.8728   YYYZ       0.6104
      XXZZ    -934.3683   XYZZ      -1.9533   YYZZ     -20.1556
      XZZZ      11.9591   YZZZ       0.0284   ZZZZ     -57.0745
 -----------------------------------------------------------------
Archival summary:
1\1\mm2.localdomain\SP\MP2\BasisUnspecified\i116h8\xuedong\WedJul319:56:542019WedJul319:56:542019\0\\#,MP2,BasisUnspecified,\\0,1\Si\H,1,1.48089\H,1,1.48091,2,108.381\H,1,1.48092,2,108.378,3,117.417,0\C,1,1.87808,2,110.567,3,-121.294,0\H,5,1.08851,1,110.927,2,-179.937,0\H,5,1.08869,1,110.845,2,-59.996,0\H,5,1.08875,1,110.826,2,59.9946,0\Gh,6,5.76864,5,121.197,1,-179.397,0\Gh,9,1.08863,6,109.126,5,-85.8073,0\Gh,10,1.08858,9,107.96,6,49.1761,0\Gh,10,1.08878,9,108.118,6,-67.5253,0\Gh,10,1.87817,9,110.862,6,170.837,0\Gh,13,1.48088,10,110.546,9,60.0552,0\Gh,13,1.48088,10,110.544,9,-179.931,0\Gh,13,1.48091,10,110.522,9,-59.9389,0\\HF=-330.323153\MP2=-330.646759\\@

 Total job time:  157.26s(wall), 936.14s(cpu) 
 Wed Jul  3 19:56:54 2019

        *************************************************************
        *                                                           *
        *  Thank you very much for using Q-Chem.  Have a nice day.  *
        *                                                           *
        *************************************************************


