
Running Job 1 of 3 ../qm_inp/SiH3CH3_SiH3CH3_con2.150.qcinp
qchem ../qm_inp/SiH3CH3_SiH3CH3_con2.150.qcinp_34012.0 /scratch/xuedong/qchem34012/ 1
/home/qwang/software/qchem5.1.2/exe/qcprog.exe_s ../qm_inp/SiH3CH3_SiH3CH3_con2.150.qcinp_34012.0 /scratch/xuedong/qchem34012/
Check license passed

                  Welcome to Q-Chem
     A Quantum Leap Into The Future Of Chemistry


 Q-Chem 5.1, Q-Chem, Inc., Pleasanton, CA (2018)

 Yihan Shao,  Zhengting Gan,  E. Epifanovsky,  A. T. B. Gilbert,  M. Wormit,  
 J. Kussmann,  A. W. Lange,  A. Behn,  Jia Deng,  Xintian Feng,  D. Ghosh,  
 M. Goldey,  P. R. Horn,  L. D. Jacobson,  I. Kaliman,  T. Kus,  A. Landau,  
 Jie Liu,  E. I. Proynov,  R. M. Richard,  R. P. Steele,  E. J. Sundstrom,  
 H. L. Woodcock III,  P. M. Zimmerman,  D. Zuev,  B. Albrecht,  E. Alguire,  
 S. A. Baeppler,  D. Barton,  Z. Benda,  Y. A. Bernard,  E. J. Berquist,  
 K. B. Bravaya,  H. Burton,  D. Casanova,  Chun-Min Chang,  Yunqing Chen,  
 A. Chien,  K. D. Closser,  M. P. Coons,  S. Coriani,  S. Dasgupta,  
 A. L. Dempwolff,  M. Diedenhofen,  Hainam Do,  R. G. Edgar,  Po-Tung Fang,  
 S. Faraji,  S. Fatehi,  Qingguo Feng,  K. D. Fenk,  J. Fosso-Tande,  
 J. Gayvert,  Qinghui Ge,  A. Ghysels,  G. Gidofalvi,  J. Gomes,  
 J. Gonthier,  A. Gunina,  D. Hait,  M. W. D. Hanson-Heine,  
 P. H. P. Harbach,  A. W. Hauser,  J. E. Herr,  E. G. Hohenstein,  
 Z. C. Holden,  Kerwin Hui,  B. C. Huynh,  T.-C. Jagau,  Hyunjun Ji,  
 B. Kaduk,  K. Khistyaev,  Jaehoon Kim,  P. Klunzinger,  K. Koh,  
 D. Kosenkov,  L. Koulias,  T. Kowalczyk,  C. M. Krauter,  A. Kunitsa,  
 Ka Un Lao,  A. Laurent,  K. V. Lawler,  Joonho Lee,  D. Lefrancois,  
 S. Lehtola,  D. S. Levine,  Yi-Pei Li,  You-Sheng Lin,  Fenglai Liu,  
 E. Livshits,  A. Luenser,  P. Manohar,  E. Mansoor,  S. F. Manzer,  
 Shan-Ping Mao,  Yuezhi Mao,  N. Mardirossian,  A. V. Marenich,  
 T. Markovich,  L. A. Martinez-Martinez,  S. A. Maurer,  N. J. Mayhall,  
 S. C. McKenzie,  J.-M. Mewes,  A. F. Morrison,  J. W. Mullinax,  K. Nanda,  
 T. S. Nguyen-Beck,  R. Olivares-Amaya,  J. A. Parkhill,  T. M. Perrine,  
 F. Plasser,  P. Pokhilko,  S. Prager,  A. Prociuk,  E. Ramos,  D. R. Rehn,  
 F. Rob,  M. Schneider,  N. Sergueev,  S. M. Sharada,  S. Sharma,  
 D. W. Small,  T. Stauch,  T. Stein,  Yu-Chuan Su,  A. J. W. Thom,  
 A. Tkatchenko,  T. Tsuchimochi,  N. M. Tubman,  L. Vogt,  M. L. Vidal,  
 O. Vydrov,  M. A. Watson,  J. Wenzel,  M. de Wergifosse,  T. A. Wesolowski,  
 A. White,  J. Witte,  A. Yamada,  Jun Yang,  K. Yao,  S. Yeganeh,  
 S. R. Yost,  Zhi-Qiang You,  A. Zech,  Igor Ying Zhang,  Xing Zhang,  
 Yan Zhao,  Ying Zhu,  B. R. Brooks,  G. K. L. Chan,  C. J. Cramer,  
 M. S. Gordon,  W. J. Hehre,  A. Klamt,  M. W. Schmidt,  C. D. Sherrill,  
 D. G. Truhlar,  A. Aspuru-Guzik,  R. Baer,  A. T. Bell,  N. A. Besley,  
 Jeng-Da Chai,  A. E. DePrince, III,  R. A. DiStasio Jr.,  A. Dreuw,  
 B. D. Dunietz,  T. R. Furlani,  Chao-Ping Hsu,  Yousung Jung,  Jing Kong,  
 D. S. Lambrecht,  WanZhen Liang,  C. Ochsenfeld,  V. A. Rassolov,  
 L. V. Slipchenko,  J. E. Subotnik,  T. Van Voorhis,  J. M. Herbert,  
 A. I. Krylov,  P. M. W. Gill,  M. Head-Gordon

 Contributors to earlier versions of Q-Chem not listed above: 
 R. D. Adamson,  B. Austin,  J. Baker,  G. J. O. Beran,  K. Brandhorst,  
 S. T. Brown,  E. F. C. Byrd,  A. K. Chakraborty,  C.-L. Cheng,  
 Siu Hung Chien,  D. M. Chipman,  D. L. Crittenden,  H. Dachsel,  
 R. J. Doerksen,  A. D. Dutoi,  L. Fusti-Molnar,  W. A. Goddard III,  
 A. Golubeva-Zadorozhnaya,  S. R. Gwaltney,  G. Hawkins,  A. Heyden,  
 S. Hirata,  G. Kedziora,  F. J. Keil,  C. Kelley,  Jihan Kim,  R. A. King,  
 R. Z. Khaliullin,  P. P. Korambath,  W. Kurlancheek,  A. M. Lee,  M. S. Lee,  
 S. V. Levchenko,  Ching Yeh Lin,  D. Liotard,  R. C. Lochan,  I. Lotan,  
 P. E. Maslen,  N. Nair,  D. P. O'Neill,  D. Neuhauser,  E. Neuscamman,  
 C. M. Oana,  R. Olson,  B. Peters,  R. Peverati,  P. A. Pieniazek,  
 Y. M. Rhee,  J. Ritchie,  M. A. Rohrdanz,  E. Rosta,  N. J. Russ,  
 H. F. Schaefer III,  N. E. Schultz,  N. Shenvi,  A. C. Simmonett,  A. Sodt,  
 D. Stuck,  K. S. Thanthiriwatte,  V. Vanovschi,  Tao Wang,  A. Warshel,  
 C. F. Williams,  Q. Wu,  X. Xu,  W. Zhang

 Please cite Q-Chem as follows:
 Y. Shao et al., Mol. Phys. 113, 184-215 (2015)
 DOI: 10.1080/00268976.2014.952696

 Q-Chem 5.1.2 for Intel X86 EM64T Linux

 Parts of Q-Chem use Armadillo 8.300.2 (Tropical Shenanigans).
 http://arma.sourceforge.net/

 Q-Chem begins on Wed Jul  3 16:56:01 2019  

Host: 
0

     Scratch files written to /scratch/xuedong/qchem34012//
 Dec218 |scratch|qcdevops|jenkins|workspace|build_RNUM 6581   
Processing $rem in /home/qwang/software/qchem5.1.2/config/preferences.
 MEM_TOTAL  4000 
Core orbitals will be frozen
Input Ideriv = 1
Curr. Ideriv = -1
Max.  Ideriv = 1

Checking the input file for inconsistencies... 	...done.

--------------------------------------------------------------
User input:
--------------------------------------------------------------
$molecule
0 1
Si     2.014998435     0.321073490    -0.133289128
H     1.503542539     1.072357510     1.035552051
H     1.215154919    -0.917779499    -0.277040965
H     1.816801357     1.147049434    -1.346132733
C     3.832693717    -0.093902041     0.092465048
H     4.212738567    -0.647371106    -0.764407842
H     3.983063110    -0.702802282     0.982191073
H     4.425687573     0.812791426     0.199197617
Si    -3.791604769    -0.426271346     0.017588931
H    -3.561835468    -1.595906645    -0.860734330
H    -3.269189339    -0.741795833     1.366588895
H    -3.025272766     0.721135834    -0.522426430
C    -5.621752143    -0.012174603     0.098656844
H    -5.795874124     0.849500679     0.740659258
H    -6.190501543    -0.850762495     0.496686230
H    -6.010098264     0.219811031    -0.891498327
$end

$rem
BASIS = aug-cc-pVTZ
JOB_TYPE  =  SP
METHOD  =  MP2
SCF_MAX_CYCLES  =  200
$end

--------------------------------------------------------------
 ----------------------------------------------------------------
             Standard Nuclear Orientation (Angstroms)
    I     Atom           X                Y                Z
 ----------------------------------------------------------------
    1      Si     -2.9213621648     0.2468504402     0.0467581792
    2      H      -2.4338153452     0.7771537295    -1.2467954664
    3      H      -2.0641603367    -0.8980006358     0.4336586944
    4      H      -2.7769561220     1.3047258231     1.0726989773
    5      C      -4.7142043905    -0.2942452937    -0.0950795376
    6      H      -5.0765843542    -0.6859107942     0.8537471806
    7      H      -4.8249632650    -1.0734486481    -0.8471150831
    8      H      -5.3491512957     0.5429718023    -0.3797487481
    9      Si      2.9159295522    -0.2263207613     0.0547385726
   10      H       2.7332190056    -1.2095661357     1.1465892057
   11      H       2.4245257849    -0.8273917186    -1.2060193455
   12      H       2.0889712177     0.9655949827     0.3562370599
   13      C       4.7246847376     0.2539851846    -0.1040014884
   14      H       4.8640756974     0.9795859669    -0.9034034653
   15      H       5.3377700347    -0.6173638031    -0.3276312827
   16      H       5.0902434727     0.6957945808     0.8213139040
 ----------------------------------------------------------------
 Molecular Point Group                 C1    NOp =  1
 Largest Abelian Subgroup              C1    NOp =  1
 Nuclear Repulsion Energy =   177.8059073958 hartrees
 There are       26 alpha and       26 beta electrons
 Requested basis set is aug-cc-pVTZ
 There are 168 shells and 468 basis functions

 Total QAlloc Memory Limit   4000 MB
 Mega-Array Size       188 MB
 MEM_STATIC part       192 MB
 A cutoff of  1.0D-08 yielded   9758 shell pairs
 There are     70926 function pairs (     89737 Cartesian)
 
 -------------------------------------------------------
 OpenMP Integral Computing Module                       
 Release: version 1.0, May 2013, Q-Chem Inc. Pittsburgh 
 -------------------------------------------------------
 Integral Job Info:
 Integral job number is                      11
 Integral operator is                         1
 short-range coefficients                     0
 long-range coefficients              100000000
 Omega coefficients                           0
 if combine SR and LR in K                    0
 Integral screening is                        0
 Integral computing path is                   2
 max size of driver memory is            800000
 size of driver memory is                776718
 size of scratch memory is             29531563
 max col of scratch BK array              10000
 max len of scratch array in speh3          662
 max len of scratch index in speh4           32
 max int batch size is                      520
 min int batch size is                       52
 fixed nKL is                                31
 max L of basis functions is                  3
 order of int derivative is                   0
 number of shells is                        168
 number of basis is                         528
 number of cartesian basis is               528
 number of contracted shell pairs          9758
 number of primitive shell pairs          27186
 maxK2 (contraction) of shell pair          169
 max number of K2 of shell pair               1
 max number of CS2 of shell pair           1883
 max number of PS2 of shell pair           2808
 mem total for path MDJ                  729164
 -------------------------------------------------------
 Smallest overlap matrix eigenvalue = 1.37E-05

 Q-Chem warning in module stvman/mkSTV.C, line 306:

 Overlap eigenvalue is smaller than square root of threshold
 Use THRESH >= 12 to get rid of this warning


 Scale SEOQF with 1.000000e-02/1.000000e-01/1.000000e-01

 Standard Electronic Orientation quadrupole field applied
 Nucleus-field energy     =     0.0000000024 hartrees
 Guess from superposition of atomic densities
 Warning:  Energy on first SCF cycle will be non-variational
 SAD guess density has 52.000000 electrons

 -----------------------------------------------------------------------
  General SCF calculation program by
  Eric Jon Sundstrom, Paul Horn, Yuezhi Mao, Dmitri Zuev, Alec White,
  David Stuck, Shaama M.S., Shane Yost, Joonho Lee, David Small,
  Daniel Levine, Susi Lehtola, Hugh Burton, Evgeny Epifanovsky
 -----------------------------------------------------------------------
 Hartree-Fock
 using 6 threads for integral computing
 -------------------------------------------------------
 OpenMP Integral computing Module                
 Release: version 1.0, May 2013, Q-Chem Inc. Pittsburgh 
 -------------------------------------------------------
 A restricted SCF calculation will be
 performed using DIIS
 SCF converges when DIIS error is below 1.0e-05
 ---------------------------------------
  Cycle       Energy         DIIS error
 ---------------------------------------
    1    -660.9453171923      1.47e-02  
    2    -660.5900456862      1.11e-03  
    3    -660.6405948728      3.30e-04  
    4    -660.6455442735      1.34e-04  
    5    -660.6462789059      1.67e-05  
    6    -660.6463012539      3.49e-06  Convergence criterion met
 ---------------------------------------
 SCF time:   CPU 339.84s  wall 56.00s 
 SCF   energy in the final basis set =     -660.6463012539
 Total energy in the final basis set =     -660.6463012539
 
 Components of the MP2 correlation energy:
        aaaa  correlation energy =        -0.0557654749 au
        abab  correlation energy =        -0.5360136169 au
        bbbb  correlation energy =        -0.0557654749 au
        non-Brillouin singles    =        -0.0000000000 au

 Total  MP2   correlation energy =                    -0.64754457 au
        MP2         total energy =                  -661.29384582 au
 
 --------------------------------------------------------------
 
                    Orbital Energies (a.u.)
 --------------------------------------------------------------
 
 Alpha MOs
 -- Occupied --
-68.764 -68.764 -11.207 -11.207  -6.113  -6.113  -4.219  -4.219
 -4.219  -4.219  -4.219  -4.219  -0.949  -0.949  -0.698  -0.697
 -0.564  -0.564  -0.564  -0.564  -0.468  -0.467  -0.467  -0.467
 -0.454  -0.453
 -- Virtual --
  0.030   0.032   0.043   0.043   0.044   0.049   0.049   0.064
  0.067   0.069   0.070   0.073   0.086   0.087   0.088   0.098
  0.099   0.119   0.130   0.132   0.135   0.137   0.141   0.146
  0.147   0.154   0.160   0.162   0.162   0.167   0.170   0.178
  0.183   0.197   0.204   0.210   0.211   0.218   0.222   0.224
  0.234   0.243   0.254   0.254   0.261   0.267   0.271   0.276
  0.294   0.297   0.319   0.324   0.326   0.328   0.333   0.335
  0.335   0.337   0.339   0.340   0.343   0.349   0.356   0.356
  0.364   0.365   0.369   0.371   0.374   0.384   0.386   0.391
  0.393   0.403   0.406   0.408   0.410   0.421   0.422   0.428
  0.438   0.441   0.452   0.452   0.455   0.462   0.465   0.466
  0.475   0.480   0.488   0.493   0.496   0.508   0.509   0.515
  0.545   0.553   0.560   0.570   0.603   0.604   0.605   0.612
  0.632   0.634   0.642   0.646   0.649   0.650   0.652   0.664
  0.665   0.676   0.681   0.691   0.693   0.696   0.697   0.701
  0.703   0.703   0.708   0.712   0.721   0.728   0.750   0.753
  0.815   0.821   0.831   0.838   0.843   0.845   0.848   0.871
  0.877   0.881   0.884   0.888   0.898   0.899   0.948   0.949
  0.954   0.954   0.958   0.959   0.963   0.969   0.975   0.983
  0.995   0.998   1.023   1.024   1.033   1.035   1.039   1.043
  1.057   1.057   1.074   1.082   1.083   1.085   1.088   1.102
  1.104   1.117   1.129   1.132   1.148   1.149   1.154   1.155
  1.156   1.160   1.162   1.164   1.164   1.171   1.172   1.191
  1.200   1.207   1.210   1.215   1.243   1.253   1.262   1.273
  1.275   1.283   1.290   1.295   1.309   1.316   1.335   1.337
  1.338   1.339   1.344   1.352   1.356   1.362   1.390   1.394
  1.394   1.400   1.419   1.429   1.430   1.432   1.433   1.436
  1.437   1.440   1.449   1.456   1.457   1.466   1.469   1.486
  1.512   1.519   1.525   1.527   1.536   1.559   1.578   1.592
  1.628   1.630   1.630   1.645   1.660   1.664   1.667   1.680
  1.692   1.695   1.696   1.697   1.750   1.756   1.789   1.801
  1.834   1.837   1.839   1.840   1.852   1.852   1.894   1.896
  1.897   1.904   1.987   1.998   2.007   2.009   2.012   2.020
  2.022   2.026   2.030   2.043   2.068   2.071   2.102   2.104
  2.123   2.129   2.130   2.132   2.162   2.167   2.168   2.170
  2.220   2.222   2.279   2.280   2.283   2.289   2.317   2.320
  2.343   2.347   2.349   2.360   2.744   2.746   3.087   3.091
  3.093   3.095   3.098   3.100   3.301   3.302   3.412   3.414
  3.414   3.416   3.436   3.480   3.561   3.562   3.564   3.567
  3.614   3.614   3.635   3.637   3.657   3.658   3.658   3.660
  3.705   3.714   3.718   3.729   3.828   3.828   3.829   3.830
  3.942   3.944   3.944   3.945   3.995   3.996   4.017   4.017
  4.029   4.038   4.040   4.040   4.087   4.087   4.102   4.107
  4.111   4.113   4.116   4.119   4.126   4.132   4.135   4.152
  4.159   4.160   4.199   4.204   4.206   4.207   4.211   4.212
  4.217   4.219   4.221   4.226   4.335   4.337   4.338   4.341
  4.349   4.357   4.359   4.368   4.498   4.501   4.502   4.507
  4.516   4.520   4.533   4.535   4.580   4.581   4.595   4.598
  4.599   4.600   4.756   4.761   4.762   4.765   4.787   4.797
  4.801   4.804   4.809   4.811   4.841   4.842   4.843   4.849
  4.888   4.901   5.005   5.005   5.018   5.021   5.023   5.024
  5.041   5.074   5.157   5.157   5.158   5.159   5.237   5.239
  5.240   5.245   5.324   5.326   5.564   5.564   5.601   5.602
  5.602   5.603   5.617   5.621   5.930   5.933   6.103   6.104
  6.105   6.105   6.692   6.694   6.694   6.695   8.958   9.030
 17.012  17.021
 --------------------------------------------------------------
 
          Ground-State Mulliken Net Atomic Charges

     Atom                 Charge (a.u.)
  ----------------------------------------
      1 Si                    1.325128
      2 H                    -0.368196
      3 H                    -0.371614
      4 H                    -0.371996
      5 C                    -1.055415
      6 H                     0.282628
      7 H                     0.278093
      8 H                     0.281757
      9 Si                    1.328413
     10 H                    -0.372573
     11 H                    -0.368893
     12 H                    -0.373179
     13 C                    -1.056586
     14 H                     0.277976
     15 H                     0.282106
     16 H                     0.282339
  ----------------------------------------
  Sum of atomic charges =    -0.000010

 -----------------------------------------------------------------
                    Cartesian Multipole Moments
 -----------------------------------------------------------------
    Charge (ESU x 10^10)
                -0.0000
    Dipole Moment (Debye)
         X       0.0035      Y      -0.0236      Z      -0.1156
       Tot       0.1181
    Quadrupole Moments (Debye-Ang)
        XX     -37.9332     XY       1.0186     YY     -46.6650
        XZ      -0.0138     YZ      -0.0002     ZZ     -46.5627
    Octopole Moments (Debye-Ang^2)
       XXX      -0.0298    XXY      -0.1121    XYY       0.2136
       YYY      -0.4965    XXZ      -0.6171    XYZ       1.2414
       YYZ      -2.4958    XZZ      -0.0150    YZZ       0.1213
       ZZZ       0.7752
    Hexadecapole Moments (Debye-Ang^3)
      XXXX   -3564.5424   XXXY     -18.0369   XXYY    -617.1880
      XYYY       6.5015   YYYY    -133.9351   XXXZ       0.7617
      XXYZ      -0.6014   XYYZ       0.8508   YYYZ      -0.0163
      XXZZ    -615.5507   XYZZ      16.5062   YYZZ     -41.8997
      XZZZ      -1.3642   YZZZ       0.0213   ZZZZ    -115.8010
 -----------------------------------------------------------------
Archival summary:
1\1\mm2.localdomain\SP\MP2\BasisUnspecified\i2212\xuedong\WedJul317:01:522019WedJul317:01:522019\0\\#,MP2,BasisUnspecified,\\0,1\Si\H,1,1.48063\H,1,1.48064,2,108.504\H,1,1.4817,2,108.336,3,-117.462,0\C,1,1.87816,2,110.577,3,121.399,0\H,5,1.08856,1,110.845,2,60.0131,0\H,5,1.08859,1,110.815,2,-179.959,0\H,5,1.08864,1,110.795,2,-59.9914,0\H,4,4.55274,1,100.563,2,56.7147,0\Si,9,1.48161,4,101.949,1,-152.541,0\H,10,1.48061,9,108.324,4,55.4321,0\H,10,1.48071,9,108.342,4,-62.0826,0\C,10,1.87808,9,110.451,4,176.68,0\H,13,1.08857,10,110.826,9,-59.9862,0\H,13,1.08857,10,110.831,9,60.0438,0\H,13,1.08864,10,110.791,9,-179.971,0\\HF=-660.646301\MP2=-661.293846\\@

 Total job time:  350.64s(wall), 2072.81s(cpu) 
 Wed Jul  3 17:01:52 2019

        *************************************************************
        *                                                           *
        *  Thank you very much for using Q-Chem.  Have a nice day.  *
        *                                                           *
        *************************************************************



Running Job 2 of 3 ../qm_inp/SiH3CH3_SiH3CH3_con2.150.qcinp
qchem ../qm_inp/SiH3CH3_SiH3CH3_con2.150.qcinp_34012.1 /scratch/xuedong/qchem34012/ 1
/home/qwang/software/qchem5.1.2/exe/qcprog.exe_s ../qm_inp/SiH3CH3_SiH3CH3_con2.150.qcinp_34012.1 /scratch/xuedong/qchem34012/
Check license passed

                  Welcome to Q-Chem
     A Quantum Leap Into The Future Of Chemistry


 Q-Chem 5.1, Q-Chem, Inc., Pleasanton, CA (2018)

 Yihan Shao,  Zhengting Gan,  E. Epifanovsky,  A. T. B. Gilbert,  M. Wormit,  
 J. Kussmann,  A. W. Lange,  A. Behn,  Jia Deng,  Xintian Feng,  D. Ghosh,  
 M. Goldey,  P. R. Horn,  L. D. Jacobson,  I. Kaliman,  T. Kus,  A. Landau,  
 Jie Liu,  E. I. Proynov,  R. M. Richard,  R. P. Steele,  E. J. Sundstrom,  
 H. L. Woodcock III,  P. M. Zimmerman,  D. Zuev,  B. Albrecht,  E. Alguire,  
 S. A. Baeppler,  D. Barton,  Z. Benda,  Y. A. Bernard,  E. J. Berquist,  
 K. B. Bravaya,  H. Burton,  D. Casanova,  Chun-Min Chang,  Yunqing Chen,  
 A. Chien,  K. D. Closser,  M. P. Coons,  S. Coriani,  S. Dasgupta,  
 A. L. Dempwolff,  M. Diedenhofen,  Hainam Do,  R. G. Edgar,  Po-Tung Fang,  
 S. Faraji,  S. Fatehi,  Qingguo Feng,  K. D. Fenk,  J. Fosso-Tande,  
 J. Gayvert,  Qinghui Ge,  A. Ghysels,  G. Gidofalvi,  J. Gomes,  
 J. Gonthier,  A. Gunina,  D. Hait,  M. W. D. Hanson-Heine,  
 P. H. P. Harbach,  A. W. Hauser,  J. E. Herr,  E. G. Hohenstein,  
 Z. C. Holden,  Kerwin Hui,  B. C. Huynh,  T.-C. Jagau,  Hyunjun Ji,  
 B. Kaduk,  K. Khistyaev,  Jaehoon Kim,  P. Klunzinger,  K. Koh,  
 D. Kosenkov,  L. Koulias,  T. Kowalczyk,  C. M. Krauter,  A. Kunitsa,  
 Ka Un Lao,  A. Laurent,  K. V. Lawler,  Joonho Lee,  D. Lefrancois,  
 S. Lehtola,  D. S. Levine,  Yi-Pei Li,  You-Sheng Lin,  Fenglai Liu,  
 E. Livshits,  A. Luenser,  P. Manohar,  E. Mansoor,  S. F. Manzer,  
 Shan-Ping Mao,  Yuezhi Mao,  N. Mardirossian,  A. V. Marenich,  
 T. Markovich,  L. A. Martinez-Martinez,  S. A. Maurer,  N. J. Mayhall,  
 S. C. McKenzie,  J.-M. Mewes,  A. F. Morrison,  J. W. Mullinax,  K. Nanda,  
 T. S. Nguyen-Beck,  R. Olivares-Amaya,  J. A. Parkhill,  T. M. Perrine,  
 F. Plasser,  P. Pokhilko,  S. Prager,  A. Prociuk,  E. Ramos,  D. R. Rehn,  
 F. Rob,  M. Schneider,  N. Sergueev,  S. M. Sharada,  S. Sharma,  
 D. W. Small,  T. Stauch,  T. Stein,  Yu-Chuan Su,  A. J. W. Thom,  
 A. Tkatchenko,  T. Tsuchimochi,  N. M. Tubman,  L. Vogt,  M. L. Vidal,  
 O. Vydrov,  M. A. Watson,  J. Wenzel,  M. de Wergifosse,  T. A. Wesolowski,  
 A. White,  J. Witte,  A. Yamada,  Jun Yang,  K. Yao,  S. Yeganeh,  
 S. R. Yost,  Zhi-Qiang You,  A. Zech,  Igor Ying Zhang,  Xing Zhang,  
 Yan Zhao,  Ying Zhu,  B. R. Brooks,  G. K. L. Chan,  C. J. Cramer,  
 M. S. Gordon,  W. J. Hehre,  A. Klamt,  M. W. Schmidt,  C. D. Sherrill,  
 D. G. Truhlar,  A. Aspuru-Guzik,  R. Baer,  A. T. Bell,  N. A. Besley,  
 Jeng-Da Chai,  A. E. DePrince, III,  R. A. DiStasio Jr.,  A. Dreuw,  
 B. D. Dunietz,  T. R. Furlani,  Chao-Ping Hsu,  Yousung Jung,  Jing Kong,  
 D. S. Lambrecht,  WanZhen Liang,  C. Ochsenfeld,  V. A. Rassolov,  
 L. V. Slipchenko,  J. E. Subotnik,  T. Van Voorhis,  J. M. Herbert,  
 A. I. Krylov,  P. M. W. Gill,  M. Head-Gordon

 Contributors to earlier versions of Q-Chem not listed above: 
 R. D. Adamson,  B. Austin,  J. Baker,  G. J. O. Beran,  K. Brandhorst,  
 S. T. Brown,  E. F. C. Byrd,  A. K. Chakraborty,  C.-L. Cheng,  
 Siu Hung Chien,  D. M. Chipman,  D. L. Crittenden,  H. Dachsel,  
 R. J. Doerksen,  A. D. Dutoi,  L. Fusti-Molnar,  W. A. Goddard III,  
 A. Golubeva-Zadorozhnaya,  S. R. Gwaltney,  G. Hawkins,  A. Heyden,  
 S. Hirata,  G. Kedziora,  F. J. Keil,  C. Kelley,  Jihan Kim,  R. A. King,  
 R. Z. Khaliullin,  P. P. Korambath,  W. Kurlancheek,  A. M. Lee,  M. S. Lee,  
 S. V. Levchenko,  Ching Yeh Lin,  D. Liotard,  R. C. Lochan,  I. Lotan,  
 P. E. Maslen,  N. Nair,  D. P. O'Neill,  D. Neuhauser,  E. Neuscamman,  
 C. M. Oana,  R. Olson,  B. Peters,  R. Peverati,  P. A. Pieniazek,  
 Y. M. Rhee,  J. Ritchie,  M. A. Rohrdanz,  E. Rosta,  N. J. Russ,  
 H. F. Schaefer III,  N. E. Schultz,  N. Shenvi,  A. C. Simmonett,  A. Sodt,  
 D. Stuck,  K. S. Thanthiriwatte,  V. Vanovschi,  Tao Wang,  A. Warshel,  
 C. F. Williams,  Q. Wu,  X. Xu,  W. Zhang

 Please cite Q-Chem as follows:
 Y. Shao et al., Mol. Phys. 113, 184-215 (2015)
 DOI: 10.1080/00268976.2014.952696

 Q-Chem 5.1.2 for Intel X86 EM64T Linux

 Parts of Q-Chem use Armadillo 8.300.2 (Tropical Shenanigans).
 http://arma.sourceforge.net/

 Q-Chem begins on Wed Jul  3 17:01:52 2019  

Host: 
0

     Scratch files written to /scratch/xuedong/qchem34012//
 Dec218 |scratch|qcdevops|jenkins|workspace|build_RNUM 6581   
Processing $rem in /home/qwang/software/qchem5.1.2/config/preferences.
 MEM_TOTAL  4000 
Core orbitals will be frozen
Input Ideriv = 1
Curr. Ideriv = -1
Max.  Ideriv = 1

Checking the input file for inconsistencies... 	...done.

--------------------------------------------------------------
User input:
--------------------------------------------------------------

$molecule
0 1
@Si     2.014998435     0.321073490    -0.133289128
@H      1.503542539     1.072357510     1.035552051
@H      1.215154919    -0.917779499    -0.277040965
@H      1.816801357     1.147049434    -1.346132733
@C      3.832693717    -0.093902041     0.092465048
@H      4.212738567    -0.647371106    -0.764407842
@H      3.983063110    -0.702802282     0.982191073
@H      4.425687573     0.812791426     0.199197617
Si    -3.791604769    -0.426271346     0.017588931
H     -3.561835468    -1.595906645    -0.860734330
H     -3.269189339    -0.741795833     1.366588895
H     -3.025272766     0.721135834    -0.522426430
C     -5.621752143    -0.012174603     0.098656844
H     -5.795874124     0.849500679     0.740659258
H     -6.190501543    -0.850762495     0.496686230
H     -6.010098264     0.219811031    -0.891498327
$end

$rem
BASIS = aug-cc-pVTZ
JOB_TYPE  =  SP
METHOD  =  MP2
SCF_MAX_CYCLES  =  200
$end

--------------------------------------------------------------
 ----------------------------------------------------------------
             Standard Nuclear Orientation (Angstroms)
    I     Atom           X                Y                Z
 ----------------------------------------------------------------
    1      GH      2.0149984350     0.3210734900    -0.1332891280
    2      GH      1.5035425390     1.0723575100     1.0355520510
    3      GH      1.2151549190    -0.9177794990    -0.2770409650
    4      GH      1.8168013570     1.1470494340    -1.3461327330
    5      GH      3.8326937170    -0.0939020410     0.0924650480
    6      GH      4.2127385670    -0.6473711060    -0.7644078420
    7      GH      3.9830631100    -0.7028022820     0.9821910730
    8      GH      4.4256875730     0.8127914260     0.1991976170
    9      Si     -3.7916047690    -0.4262713460     0.0175889310
   10      H      -3.5618354680    -1.5959066450    -0.8607343300
   11      H      -3.2691893390    -0.7417958330     1.3665888950
   12      H      -3.0252727660     0.7211358340    -0.5224264300
   13      C      -5.6217521430    -0.0121746030     0.0986568440
   14      H      -5.7958741240     0.8495006790     0.7406592580
   15      H      -6.1905015430    -0.8507624950     0.4966862300
   16      H      -6.0100982640     0.2198110310    -0.8914983270
 ----------------------------------------------------------------
 Nuclear Repulsion Energy =    62.8485298345 hartrees
 There are       13 alpha and       13 beta electrons
 Requested basis set is aug-cc-pVTZ
 There are 168 shells and 468 basis functions

 Total QAlloc Memory Limit   4000 MB
 Mega-Array Size       188 MB
 MEM_STATIC part       192 MB
 A cutoff of  1.0D-08 yielded   9758 shell pairs
 There are     70926 function pairs (     89737 Cartesian)
 
 -------------------------------------------------------
 OpenMP Integral Computing Module                       
 Release: version 1.0, May 2013, Q-Chem Inc. Pittsburgh 
 -------------------------------------------------------
 Integral Job Info:
 Integral job number is                      11
 Integral operator is                         1
 short-range coefficients                     0
 long-range coefficients              100000000
 Omega coefficients                           0
 if combine SR and LR in K                    0
 Integral screening is                        0
 Integral computing path is                   2
 max size of driver memory is            800000
 size of driver memory is                776718
 size of scratch memory is             29531563
 max col of scratch BK array              10000
 max len of scratch array in speh3          662
 max len of scratch index in speh4           32
 max int batch size is                      520
 min int batch size is                       52
 fixed nKL is                                31
 max L of basis functions is                  3
 order of int derivative is                   0
 number of shells is                        168
 number of basis is                         528
 number of cartesian basis is               528
 number of contracted shell pairs          9758
 number of primitive shell pairs          27186
 maxK2 (contraction) of shell pair          169
 max number of K2 of shell pair               1
 max number of CS2 of shell pair           1883
 max number of PS2 of shell pair           2808
 mem total for path MDJ                  729164
 -------------------------------------------------------
 Smallest overlap matrix eigenvalue = 1.37E-05

 Q-Chem warning in module stvman/mkSTV.C, line 306:

 Overlap eigenvalue is smaller than square root of threshold
 Use THRESH >= 12 to get rid of this warning


 Scale SEOQF with 1.000000e-02/1.000000e-01/1.000000e-01

 Standard Electronic Orientation quadrupole field applied
 Nucleus-field energy     =     0.0000000020 hartrees
 Guess from superposition of atomic densities
 Warning:  Energy on first SCF cycle will be non-variational
 SAD guess density has 26.000000 electrons

 -----------------------------------------------------------------------
  General SCF calculation program by
  Eric Jon Sundstrom, Paul Horn, Yuezhi Mao, Dmitri Zuev, Alec White,
  David Stuck, Shaama M.S., Shane Yost, Joonho Lee, David Small,
  Daniel Levine, Susi Lehtola, Hugh Burton, Evgeny Epifanovsky
 -----------------------------------------------------------------------
 Hartree-Fock
 using 6 threads for integral computing
 -------------------------------------------------------
 OpenMP Integral computing Module                
 Release: version 1.0, May 2013, Q-Chem Inc. Pittsburgh 
 -------------------------------------------------------
 A restricted SCF calculation will be
 performed using DIIS
 SCF converges when DIIS error is below 1.0e-05
 ---------------------------------------
  Cycle       Energy         DIIS error
 ---------------------------------------
    1    -330.4724693955      1.04e-02  
    2    -330.2950466036      7.86e-04  
    3    -330.3203118137      2.33e-04  
    4    -330.3227856982      9.50e-05  
    5    -330.3231523929      1.18e-05  
    6    -330.3231635288      2.48e-06  Convergence criterion met
 ---------------------------------------
 SCF time:   CPU 336.19s  wall 56.00s 
 SCF   energy in the final basis set =     -330.3231635288
 Total energy in the final basis set =     -330.3231635288
 
 Components of the MP2 correlation energy:
        aaaa  correlation energy =        -0.0278492815 au
        abab  correlation energy =        -0.2679385880 au
        bbbb  correlation energy =        -0.0278492815 au
        non-Brillouin singles    =        -0.0000000000 au

 Total  MP2   correlation energy =                    -0.32363715 au
        MP2         total energy =                  -330.64680068 au
 
 --------------------------------------------------------------
 
                    Orbital Energies (a.u.)
 --------------------------------------------------------------
 
 Alpha MOs
 -- Occupied --
-68.766 -11.208  -6.115  -4.221  -4.221  -4.220  -0.950  -0.699
 -0.565  -0.565  -0.469  -0.468  -0.454
 -- Virtual --
  0.021   0.031   0.040   0.040   0.041   0.047   0.048   0.061
  0.065   0.067   0.069   0.072   0.083   0.087   0.089   0.091
  0.096   0.099   0.115   0.123   0.127   0.129   0.139   0.140
  0.145   0.149   0.161   0.162   0.165   0.174   0.177   0.181
  0.200   0.202   0.204   0.207   0.212   0.216   0.222   0.226
  0.233   0.241   0.246   0.262   0.265   0.269   0.287   0.289
  0.294   0.295   0.305   0.307   0.310   0.322   0.327   0.329
  0.335   0.337   0.341   0.342   0.349   0.356   0.359   0.362
  0.365   0.369   0.376   0.380   0.385   0.389   0.394   0.400
  0.406   0.412   0.416   0.428   0.436   0.437   0.442   0.448
  0.454   0.456   0.460   0.462   0.463   0.468   0.473   0.479
  0.479   0.489   0.497   0.498   0.501   0.514   0.527   0.539
  0.541   0.550   0.554   0.563   0.571   0.587   0.608   0.611
  0.617   0.633   0.641   0.648   0.655   0.662   0.669   0.670
  0.674   0.683   0.683   0.691   0.698   0.705   0.712   0.718
  0.725   0.742   0.752   0.760   0.764   0.799   0.802   0.822
  0.828   0.835   0.838   0.840   0.865   0.871   0.874   0.882
  0.884   0.896   0.900   0.931   0.936   0.953   0.957   0.960
  0.963   0.964   0.979   0.993   1.013   1.014   1.015   1.027
  1.030   1.038   1.039   1.043   1.052   1.071   1.075   1.081
  1.088   1.094   1.096   1.107   1.114   1.118   1.127   1.137
  1.140   1.150   1.152   1.156   1.159   1.162   1.163   1.167
  1.172   1.176   1.186   1.190   1.196   1.200   1.203   1.205
  1.209   1.214   1.230   1.236   1.237   1.260   1.267   1.273
  1.287   1.294   1.303   1.335   1.338   1.341   1.348   1.354
  1.359   1.364   1.376   1.386   1.390   1.392   1.394   1.397
  1.407   1.413   1.421   1.430   1.431   1.435   1.436   1.438
  1.455   1.458   1.482   1.486   1.495   1.522   1.526   1.538
  1.555   1.576   1.600   1.604   1.618   1.624   1.629   1.647
  1.652   1.669   1.683   1.691   1.693   1.697   1.706   1.744
  1.756   1.769   1.774   1.784   1.810   1.834   1.837   1.851
  1.858   1.863   1.877   1.894   1.898   1.917   1.922   1.937
  1.994   2.003   2.008   2.022   2.024   2.041   2.048   2.066
  2.068   2.076   2.103   2.120   2.125   2.133   2.134   2.139
  2.163   2.169   2.219   2.264   2.268   2.280   2.284   2.313
  2.336   2.345   2.349   2.359   2.365   2.412   2.461   2.463
  2.500   2.534   2.537   2.540   2.673   2.680   2.744   2.768
  2.771   2.773   2.998   3.002   3.091   3.091   3.097   3.152
  3.301   3.412   3.414   3.458   3.561   3.563   3.613   3.634
  3.656   3.657   3.714   3.715   3.759   3.773   3.827   3.828
  3.849   3.925   3.942   3.944   3.995   4.019   4.033   4.038
  4.082   4.086   4.099   4.107   4.111   4.115   4.124   4.124
  4.131   4.137   4.159   4.166   4.167   4.202   4.204   4.207
  4.216   4.220   4.249   4.273   4.282   4.335   4.337   4.343
  4.355   4.361   4.362   4.366   4.403   4.406   4.409   4.426
  4.477   4.477   4.499   4.503   4.511   4.532   4.535   4.537
  4.540   4.580   4.596   4.596   4.601   4.617   4.622   4.638
  4.655   4.658   4.724   4.732   4.757   4.763   4.780   4.793
  4.802   4.806   4.841   4.844   4.875   4.888   4.889   4.897
  4.912   4.921   5.004   5.018   5.022   5.054   5.057   5.156
  5.157   5.160   5.160   5.222   5.229   5.237   5.242   5.279
  5.283   5.322   5.344   5.348   5.351   5.353   5.452   5.453
  5.461   5.489   5.495   5.563   5.600   5.602   5.618   5.640
  5.642   5.738   5.930   6.052   6.103   6.104   6.138   6.140
  6.142   6.183   6.187   6.190   6.692   6.693   6.739   6.739
  7.055   7.477   7.801   7.802   8.146   8.146   8.993  10.259
 15.011  17.016  20.435  20.460  20.839  51.335 106.975
 --------------------------------------------------------------
 
          Ground-State Mulliken Net Atomic Charges

     Atom                 Charge (a.u.)
  ----------------------------------------
      1 GH                    0.001005
      2 GH                   -0.000301
      3 GH                    0.003262
      4 GH                    0.000216
      5 GH                    0.000102
      6 GH                    0.000026
      7 GH                    0.000075
      8 GH                   -0.000001
      9 Si                    1.324374
     10 H                    -0.371788
     11 H                    -0.368044
     12 H                    -0.375031
     13 C                    -1.056446
     14 H                     0.278007
     15 H                     0.282271
     16 H                     0.282269
  ----------------------------------------
  Sum of atomic charges =    -0.000005

 -----------------------------------------------------------------
                    Cartesian Multipole Moments
 -----------------------------------------------------------------
    Charge (ESU x 10^10)
                -0.0000
    Dipole Moment (Debye)
         X      -0.6899      Y       0.1482      Z       0.0332
       Tot       0.7064
    Quadrupole Moments (Debye-Ang)
        XX     -17.5761     XY      -0.3785     YY     -23.3820
        XZ      -0.1575     YZ      -0.0047     ZZ     -23.2751
    Octopole Moments (Debye-Ang^2)
       XXX     270.5521    XXY       6.2765    XYY     100.0881
       YYY      21.3163    XXZ      -0.4032    XYZ       0.5141
       YYZ       0.7465    XZZ      99.5645    YZZ       8.1589
       ZZZ      -4.4644
    Hexadecapole Moments (Debye-Ang^3)
      XXXX   -2655.5141   XXXY     -60.3073   XXYY    -468.3947
      XYYY     -78.5324   YYYY     -75.8968   XXXZ      14.0580
      XXYZ      -4.4091   XYYZ      -2.9999   YYYZ      -1.0533
      XXZZ    -463.6387   XYZZ     -30.8281   YYZZ     -22.6433
      XZZZ      21.9697   YZZZ       0.8833   ZZZZ     -57.8541
 -----------------------------------------------------------------
Archival summary:
1\1\mm2.localdomain\SP\MP2\BasisUnspecified\i116h8\xuedong\WedJul317:05:162019WedJul317:05:162019\0\\#,MP2,BasisUnspecified,\\0,1\Si\H,1,1.48063\H,1,1.48064,2,108.504\H,1,1.4817,2,108.336,3,-117.462,0\C,1,1.87816,2,110.577,3,121.399,0\H,5,1.08856,1,110.845,2,60.0131,0\H,5,1.08859,1,110.815,2,-179.959,0\H,5,1.08864,1,110.795,2,-59.9914,0\Gh,4,4.55274,1,100.563,2,56.7147,0\Gh,9,1.48161,4,101.949,1,-152.541,0\Gh,10,1.48061,9,108.324,4,55.4321,0\Gh,10,1.48071,9,108.342,4,-62.0826,0\Gh,10,1.87808,9,110.451,4,176.68,0\Gh,13,1.08857,10,110.826,9,-59.9862,0\Gh,13,1.08857,10,110.831,9,60.0438,0\Gh,13,1.08864,10,110.791,9,-179.971,0\\HF=-330.323164\MP2=-330.646801\\@

 Total job time:  204.14s(wall), 1216.45s(cpu) 
 Wed Jul  3 17:05:16 2019

        *************************************************************
        *                                                           *
        *  Thank you very much for using Q-Chem.  Have a nice day.  *
        *                                                           *
        *************************************************************



Running Job 3 of 3 ../qm_inp/SiH3CH3_SiH3CH3_con2.150.qcinp
qchem ../qm_inp/SiH3CH3_SiH3CH3_con2.150.qcinp_34012.2 /scratch/xuedong/qchem34012/ 1
/home/qwang/software/qchem5.1.2/exe/qcprog.exe_s ../qm_inp/SiH3CH3_SiH3CH3_con2.150.qcinp_34012.2 /scratch/xuedong/qchem34012/
Check license passed

                  Welcome to Q-Chem
     A Quantum Leap Into The Future Of Chemistry


 Q-Chem 5.1, Q-Chem, Inc., Pleasanton, CA (2018)

 Yihan Shao,  Zhengting Gan,  E. Epifanovsky,  A. T. B. Gilbert,  M. Wormit,  
 J. Kussmann,  A. W. Lange,  A. Behn,  Jia Deng,  Xintian Feng,  D. Ghosh,  
 M. Goldey,  P. R. Horn,  L. D. Jacobson,  I. Kaliman,  T. Kus,  A. Landau,  
 Jie Liu,  E. I. Proynov,  R. M. Richard,  R. P. Steele,  E. J. Sundstrom,  
 H. L. Woodcock III,  P. M. Zimmerman,  D. Zuev,  B. Albrecht,  E. Alguire,  
 S. A. Baeppler,  D. Barton,  Z. Benda,  Y. A. Bernard,  E. J. Berquist,  
 K. B. Bravaya,  H. Burton,  D. Casanova,  Chun-Min Chang,  Yunqing Chen,  
 A. Chien,  K. D. Closser,  M. P. Coons,  S. Coriani,  S. Dasgupta,  
 A. L. Dempwolff,  M. Diedenhofen,  Hainam Do,  R. G. Edgar,  Po-Tung Fang,  
 S. Faraji,  S. Fatehi,  Qingguo Feng,  K. D. Fenk,  J. Fosso-Tande,  
 J. Gayvert,  Qinghui Ge,  A. Ghysels,  G. Gidofalvi,  J. Gomes,  
 J. Gonthier,  A. Gunina,  D. Hait,  M. W. D. Hanson-Heine,  
 P. H. P. Harbach,  A. W. Hauser,  J. E. Herr,  E. G. Hohenstein,  
 Z. C. Holden,  Kerwin Hui,  B. C. Huynh,  T.-C. Jagau,  Hyunjun Ji,  
 B. Kaduk,  K. Khistyaev,  Jaehoon Kim,  P. Klunzinger,  K. Koh,  
 D. Kosenkov,  L. Koulias,  T. Kowalczyk,  C. M. Krauter,  A. Kunitsa,  
 Ka Un Lao,  A. Laurent,  K. V. Lawler,  Joonho Lee,  D. Lefrancois,  
 S. Lehtola,  D. S. Levine,  Yi-Pei Li,  You-Sheng Lin,  Fenglai Liu,  
 E. Livshits,  A. Luenser,  P. Manohar,  E. Mansoor,  S. F. Manzer,  
 Shan-Ping Mao,  Yuezhi Mao,  N. Mardirossian,  A. V. Marenich,  
 T. Markovich,  L. A. Martinez-Martinez,  S. A. Maurer,  N. J. Mayhall,  
 S. C. McKenzie,  J.-M. Mewes,  A. F. Morrison,  J. W. Mullinax,  K. Nanda,  
 T. S. Nguyen-Beck,  R. Olivares-Amaya,  J. A. Parkhill,  T. M. Perrine,  
 F. Plasser,  P. Pokhilko,  S. Prager,  A. Prociuk,  E. Ramos,  D. R. Rehn,  
 F. Rob,  M. Schneider,  N. Sergueev,  S. M. Sharada,  S. Sharma,  
 D. W. Small,  T. Stauch,  T. Stein,  Yu-Chuan Su,  A. J. W. Thom,  
 A. Tkatchenko,  T. Tsuchimochi,  N. M. Tubman,  L. Vogt,  M. L. Vidal,  
 O. Vydrov,  M. A. Watson,  J. Wenzel,  M. de Wergifosse,  T. A. Wesolowski,  
 A. White,  J. Witte,  A. Yamada,  Jun Yang,  K. Yao,  S. Yeganeh,  
 S. R. Yost,  Zhi-Qiang You,  A. Zech,  Igor Ying Zhang,  Xing Zhang,  
 Yan Zhao,  Ying Zhu,  B. R. Brooks,  G. K. L. Chan,  C. J. Cramer,  
 M. S. Gordon,  W. J. Hehre,  A. Klamt,  M. W. Schmidt,  C. D. Sherrill,  
 D. G. Truhlar,  A. Aspuru-Guzik,  R. Baer,  A. T. Bell,  N. A. Besley,  
 Jeng-Da Chai,  A. E. DePrince, III,  R. A. DiStasio Jr.,  A. Dreuw,  
 B. D. Dunietz,  T. R. Furlani,  Chao-Ping Hsu,  Yousung Jung,  Jing Kong,  
 D. S. Lambrecht,  WanZhen Liang,  C. Ochsenfeld,  V. A. Rassolov,  
 L. V. Slipchenko,  J. E. Subotnik,  T. Van Voorhis,  J. M. Herbert,  
 A. I. Krylov,  P. M. W. Gill,  M. Head-Gordon

 Contributors to earlier versions of Q-Chem not listed above: 
 R. D. Adamson,  B. Austin,  J. Baker,  G. J. O. Beran,  K. Brandhorst,  
 S. T. Brown,  E. F. C. Byrd,  A. K. Chakraborty,  C.-L. Cheng,  
 Siu Hung Chien,  D. M. Chipman,  D. L. Crittenden,  H. Dachsel,  
 R. J. Doerksen,  A. D. Dutoi,  L. Fusti-Molnar,  W. A. Goddard III,  
 A. Golubeva-Zadorozhnaya,  S. R. Gwaltney,  G. Hawkins,  A. Heyden,  
 S. Hirata,  G. Kedziora,  F. J. Keil,  C. Kelley,  Jihan Kim,  R. A. King,  
 R. Z. Khaliullin,  P. P. Korambath,  W. Kurlancheek,  A. M. Lee,  M. S. Lee,  
 S. V. Levchenko,  Ching Yeh Lin,  D. Liotard,  R. C. Lochan,  I. Lotan,  
 P. E. Maslen,  N. Nair,  D. P. O'Neill,  D. Neuhauser,  E. Neuscamman,  
 C. M. Oana,  R. Olson,  B. Peters,  R. Peverati,  P. A. Pieniazek,  
 Y. M. Rhee,  J. Ritchie,  M. A. Rohrdanz,  E. Rosta,  N. J. Russ,  
 H. F. Schaefer III,  N. E. Schultz,  N. Shenvi,  A. C. Simmonett,  A. Sodt,  
 D. Stuck,  K. S. Thanthiriwatte,  V. Vanovschi,  Tao Wang,  A. Warshel,  
 C. F. Williams,  Q. Wu,  X. Xu,  W. Zhang

 Please cite Q-Chem as follows:
 Y. Shao et al., Mol. Phys. 113, 184-215 (2015)
 DOI: 10.1080/00268976.2014.952696

 Q-Chem 5.1.2 for Intel X86 EM64T Linux

 Parts of Q-Chem use Armadillo 8.300.2 (Tropical Shenanigans).
 http://arma.sourceforge.net/

 Q-Chem begins on Wed Jul  3 17:05:16 2019  

Host: 
0

     Scratch files written to /scratch/xuedong/qchem34012//
 Dec218 |scratch|qcdevops|jenkins|workspace|build_RNUM 6581   
Processing $rem in /home/qwang/software/qchem5.1.2/config/preferences.
 MEM_TOTAL  4000 
Core orbitals will be frozen
Input Ideriv = 1
Curr. Ideriv = -1
Max.  Ideriv = 1

Checking the input file for inconsistencies... 	...done.

--------------------------------------------------------------
User input:
--------------------------------------------------------------

$molecule
0 1
Si     2.014998435     0.321073490    -0.133289128
H      1.503542539     1.072357510     1.035552051
H      1.215154919    -0.917779499    -0.277040965
H      1.816801357     1.147049434    -1.346132733
C      3.832693717    -0.093902041     0.092465048
H      4.212738567    -0.647371106    -0.764407842
H      3.983063110    -0.702802282     0.982191073
H      4.425687573     0.812791426     0.199197617
@Si    -3.791604769    -0.426271346     0.017588931
@H     -3.561835468    -1.595906645    -0.860734330
@H     -3.269189339    -0.741795833     1.366588895
@H     -3.025272766     0.721135834    -0.522426430
@C     -5.621752143    -0.012174603     0.098656844
@H     -5.795874124     0.849500679     0.740659258
@H     -6.190501543    -0.850762495     0.496686230
@H     -6.010098264     0.219811031    -0.891498327
$end

$rem
BASIS = aug-cc-pVTZ
JOB_TYPE  =  SP
METHOD  =  MP2
SCF_MAX_CYCLES  =  200
$end
--------------------------------------------------------------
 ----------------------------------------------------------------
             Standard Nuclear Orientation (Angstroms)
    I     Atom           X                Y                Z
 ----------------------------------------------------------------
    1      Si      2.0149984350     0.3210734900    -0.1332891280
    2      H       1.5035425390     1.0723575100     1.0355520510
    3      H       1.2151549190    -0.9177794990    -0.2770409650
    4      H       1.8168013570     1.1470494340    -1.3461327330
    5      C       3.8326937170    -0.0939020410     0.0924650480
    6      H       4.2127385670    -0.6473711060    -0.7644078420
    7      H       3.9830631100    -0.7028022820     0.9821910730
    8      H       4.4256875730     0.8127914260     0.1991976170
    9      GH     -3.7916047690    -0.4262713460     0.0175889310
   10      GH     -3.5618354680    -1.5959066450    -0.8607343300
   11      GH     -3.2691893390    -0.7417958330     1.3665888950
   12      GH     -3.0252727660     0.7211358340    -0.5224264300
   13      GH     -5.6217521430    -0.0121746030     0.0986568440
   14      GH     -5.7958741240     0.8495006790     0.7406592580
   15      GH     -6.1905015430    -0.8507624950     0.4966862300
   16      GH     -6.0100982640     0.2198110310    -0.8914983270
 ----------------------------------------------------------------
 Nuclear Repulsion Energy =    62.8498627631 hartrees
 There are       13 alpha and       13 beta electrons
 Requested basis set is aug-cc-pVTZ
 There are 168 shells and 468 basis functions

 Total QAlloc Memory Limit   4000 MB
 Mega-Array Size       188 MB
 MEM_STATIC part       192 MB
 A cutoff of  1.0D-08 yielded   9758 shell pairs
 There are     70926 function pairs (     89737 Cartesian)
 
 -------------------------------------------------------
 OpenMP Integral Computing Module                       
 Release: version 1.0, May 2013, Q-Chem Inc. Pittsburgh 
 -------------------------------------------------------
 Integral Job Info:
 Integral job number is                      11
 Integral operator is                         1
 short-range coefficients                     0
 long-range coefficients              100000000
 Omega coefficients                           0
 if combine SR and LR in K                    0
 Integral screening is                        0
 Integral computing path is                   2
 max size of driver memory is            800000
 size of driver memory is                776718
 size of scratch memory is             29531563
 max col of scratch BK array              10000
 max len of scratch array in speh3          662
 max len of scratch index in speh4           32
 max int batch size is                      520
 min int batch size is                       52
 fixed nKL is                                31
 max L of basis functions is                  3
 order of int derivative is                   0
 number of shells is                        168
 number of basis is                         528
 number of cartesian basis is               528
 number of contracted shell pairs          9758
 number of primitive shell pairs          27186
 maxK2 (contraction) of shell pair          169
 max number of K2 of shell pair               1
 max number of CS2 of shell pair           1883
 max number of PS2 of shell pair           2808
 mem total for path MDJ                  729164
 -------------------------------------------------------
 Smallest overlap matrix eigenvalue = 1.37E-05

 Q-Chem warning in module stvman/mkSTV.C, line 306:

 Overlap eigenvalue is smaller than square root of threshold
 Use THRESH >= 12 to get rid of this warning


 Scale SEOQF with 1.000000e-02/1.000000e-01/1.000000e-01

 Standard Electronic Orientation quadrupole field applied
 Nucleus-field energy     =     0.0000000007 hartrees
 Guess from superposition of atomic densities
 Warning:  Energy on first SCF cycle will be non-variational
 SAD guess density has 26.000000 electrons

 -----------------------------------------------------------------------
  General SCF calculation program by
  Eric Jon Sundstrom, Paul Horn, Yuezhi Mao, Dmitri Zuev, Alec White,
  David Stuck, Shaama M.S., Shane Yost, Joonho Lee, David Small,
  Daniel Levine, Susi Lehtola, Hugh Burton, Evgeny Epifanovsky
 -----------------------------------------------------------------------
 Hartree-Fock
 using 6 threads for integral computing
 -------------------------------------------------------
 OpenMP Integral computing Module                
 Release: version 1.0, May 2013, Q-Chem Inc. Pittsburgh 
 -------------------------------------------------------
 A restricted SCF calculation will be
 performed using DIIS
 SCF converges when DIIS error is below 1.0e-05
 ---------------------------------------
  Cycle       Energy         DIIS error
 ---------------------------------------
    1    -330.4725854322      1.04e-02  
    2    -330.2950512507      7.86e-04  
    3    -330.3203127733      2.33e-04  
    4    -330.3227858292      9.49e-05  
    5    -330.3231523026      1.18e-05  
    6    -330.3231634407      2.48e-06  Convergence criterion met
 ---------------------------------------
 SCF time:   CPU 336.03s  wall 56.00s 
 SCF   energy in the final basis set =     -330.3231634407
 Total energy in the final basis set =     -330.3231634407
 
 Components of the MP2 correlation energy:
        aaaa  correlation energy =        -0.0278494410 au
        abab  correlation energy =        -0.2679380328 au
        bbbb  correlation energy =        -0.0278494410 au
        non-Brillouin singles    =        -0.0000000000 au

 Total  MP2   correlation energy =                    -0.32363691 au
        MP2         total energy =                  -330.64680036 au
 
 --------------------------------------------------------------
 
                    Orbital Energies (a.u.)
 --------------------------------------------------------------
 
 Alpha MOs
 -- Occupied --
-68.766 -11.208  -6.115  -4.221  -4.221  -4.220  -0.950  -0.699
 -0.565  -0.565  -0.469  -0.468  -0.455
 -- Virtual --
  0.021   0.031   0.040   0.040   0.041   0.047   0.048   0.061
  0.065   0.067   0.069   0.072   0.084   0.087   0.089   0.090
  0.096   0.099   0.115   0.124   0.127   0.129   0.138   0.140
  0.145   0.150   0.161   0.162   0.165   0.175   0.176   0.181
  0.200   0.202   0.204   0.206   0.211   0.216   0.222   0.227
  0.233   0.241   0.247   0.262   0.265   0.270   0.287   0.289
  0.293   0.295   0.305   0.307   0.310   0.321   0.326   0.329
  0.335   0.338   0.340   0.342   0.349   0.356   0.359   0.362
  0.366   0.369   0.376   0.380   0.385   0.390   0.394   0.400
  0.406   0.412   0.416   0.429   0.436   0.437   0.442   0.448
  0.453   0.456   0.460   0.462   0.463   0.469   0.473   0.478
  0.480   0.489   0.498   0.498   0.501   0.513   0.526   0.539
  0.541   0.549   0.554   0.564   0.572   0.587   0.608   0.612
  0.617   0.631   0.641   0.649   0.655   0.663   0.668   0.670
  0.674   0.683   0.683   0.691   0.698   0.705   0.712   0.718
  0.726   0.743   0.753   0.760   0.764   0.799   0.802   0.822
  0.826   0.834   0.837   0.840   0.865   0.871   0.874   0.882
  0.884   0.896   0.900   0.931   0.935   0.953   0.957   0.959
  0.963   0.964   0.978   0.993   1.012   1.014   1.015   1.027
  1.029   1.037   1.039   1.044   1.054   1.071   1.075   1.081
  1.088   1.093   1.096   1.107   1.114   1.117   1.127   1.137
  1.139   1.150   1.152   1.156   1.160   1.161   1.163   1.167
  1.172   1.176   1.186   1.191   1.195   1.200   1.202   1.206
  1.210   1.214   1.229   1.238   1.239   1.260   1.267   1.271
  1.287   1.295   1.303   1.334   1.338   1.341   1.348   1.355
  1.359   1.365   1.376   1.386   1.390   1.392   1.394   1.397
  1.408   1.413   1.420   1.430   1.431   1.435   1.436   1.438
  1.455   1.459   1.483   1.484   1.494   1.522   1.526   1.539
  1.557   1.575   1.600   1.603   1.619   1.623   1.629   1.645
  1.652   1.669   1.683   1.691   1.693   1.697   1.705   1.744
  1.756   1.768   1.774   1.784   1.810   1.834   1.837   1.851
  1.858   1.863   1.878   1.894   1.898   1.918   1.923   1.935
  1.993   2.003   2.008   2.022   2.024   2.042   2.048   2.065
  2.068   2.076   2.103   2.119   2.126   2.133   2.135   2.140
  2.164   2.170   2.220   2.264   2.268   2.280   2.285   2.313
  2.335   2.345   2.349   2.359   2.364   2.413   2.461   2.462
  2.500   2.534   2.538   2.541   2.673   2.679   2.744   2.768
  2.771   2.773   2.998   3.002   3.090   3.091   3.098   3.152
  3.300   3.412   3.414   3.455   3.561   3.564   3.613   3.634
  3.656   3.657   3.714   3.716   3.759   3.771   3.827   3.828
  3.850   3.926   3.942   3.944   3.995   4.018   4.033   4.038
  4.082   4.086   4.099   4.106   4.111   4.115   4.124   4.124
  4.131   4.137   4.159   4.166   4.167   4.202   4.204   4.208
  4.217   4.220   4.248   4.273   4.282   4.335   4.337   4.343
  4.356   4.361   4.362   4.366   4.403   4.406   4.409   4.426
  4.476   4.477   4.499   4.504   4.511   4.532   4.535   4.537
  4.541   4.580   4.596   4.597   4.603   4.617   4.622   4.639
  4.655   4.658   4.724   4.732   4.757   4.764   4.780   4.792
  4.802   4.807   4.841   4.844   4.875   4.887   4.889   4.897
  4.912   4.920   5.004   5.019   5.023   5.054   5.056   5.156
  5.157   5.160   5.160   5.222   5.229   5.237   5.242   5.280
  5.283   5.322   5.345   5.348   5.351   5.353   5.452   5.453
  5.461   5.489   5.494   5.563   5.600   5.602   5.617   5.639
  5.642   5.738   5.930   6.052   6.103   6.104   6.138   6.140
  6.142   6.184   6.187   6.190   6.692   6.693   6.739   6.740
  7.056   7.477   7.801   7.802   8.146   8.146   8.991  10.260
 15.014  17.015  20.435  20.457  20.841  51.336 106.976
 --------------------------------------------------------------
 
          Ground-State Mulliken Net Atomic Charges

     Atom                 Charge (a.u.)
  ----------------------------------------
      1 Si                    1.321443
      2 H                    -0.367390
      3 H                    -0.373940
      4 H                    -0.371321
      5 C                    -1.055422
      6 H                     0.282621
      7 H                     0.278105
      8 H                     0.281894
      9 GH                    0.001033
     10 GH                    0.000147
     11 GH                   -0.000308
     12 GH                    0.002984
     13 GH                    0.000073
     14 GH                    0.000062
     15 GH                   -0.000007
     16 GH                    0.000022
  ----------------------------------------
  Sum of atomic charges =    -0.000004

 -----------------------------------------------------------------
                    Cartesian Multipole Moments
 -----------------------------------------------------------------
    Charge (ESU x 10^10)
                -0.0000
    Dipole Moment (Debye)
         X       0.6871      Y      -0.1486      Z       0.0858
       Tot       0.7082
    Quadrupole Moments (Debye-Ang)
        XX     -20.0441     XY      -0.1895     YY     -23.3515
        XZ       0.1387     YZ       0.0337     ZZ     -23.2920
    Octopole Moments (Debye-Ang^2)
       XXX    -170.0231    XXY      -3.2665    XYY     -58.1597
       YYY     -12.9193    XXZ       1.0963    XYZ       0.5527
       YYZ       1.9119    XZZ     -58.5466    YZZ      -6.7411
       ZZZ       4.8187
    Hexadecapole Moments (Debye-Ang^3)
      XXXX   -1075.8569   XXXY     -11.4372   XXYY    -183.4835
      XYYY     -19.2853   YYYY     -67.8414   XXXZ       0.3116
      XXYZ       3.3539   XYYZ       2.7027   YYYZ       2.6480
      XXZZ    -185.0011   XYZZ     -13.1764   YYZZ     -22.0291
      XZZZ       5.1799   YZZZ       2.8421   ZZZZ     -59.4772
 -----------------------------------------------------------------
Archival summary:
1\1\mm2.localdomain\SP\MP2\BasisUnspecified\i116h8\xuedong\WedJul317:08:412019WedJul317:08:412019\0\\#,MP2,BasisUnspecified,\\0,1\Si\H,1,1.48061\H,1,1.48071,2,108.502\H,1,1.48161,2,108.324,3,-117.413,0\C,1,1.87808,2,110.582,3,121.421,0\H,5,1.08857,1,110.826,2,59.911,0\H,5,1.08857,1,110.831,2,179.941,0\H,5,1.08864,1,110.791,2,-60.0734,0\Gh,4,4.55274,1,101.949,2,55.4321,0\Gh,9,1.4817,4,100.563,1,-152.541,0\Gh,10,1.48063,9,108.336,4,56.7147,0\Gh,10,1.48064,9,108.377,4,-60.8287,0\Gh,10,1.87816,9,110.424,4,177.948,0\Gh,13,1.08856,10,110.845,9,-59.8796,0\Gh,13,1.08859,10,110.815,9,60.1478,0\Gh,13,1.08864,10,110.795,9,-179.884,0\\HF=-330.323163\MP2=-330.6468\\@

 Total job time:  204.70s(wall), 1219.57s(cpu) 
 Wed Jul  3 17:08:41 2019

        *************************************************************
        *                                                           *
        *  Thank you very much for using Q-Chem.  Have a nice day.  *
        *                                                           *
        *************************************************************


