
Running Job 1 of 1 ../qm_inp/SiH3CH3_SiH3CH3_con2.110.qcinp
qchem ../qm_inp/SiH3CH3_SiH3CH3_con2.110.qcinp_28473.0 /scratch/xuedong/qchem28473/ 1
/home/qwang/software/qchem5.1.2/exe/qcprog.exe_s ../qm_inp/SiH3CH3_SiH3CH3_con2.110.qcinp_28473.0 /scratch/xuedong/qchem28473/
Check license passed

                  Welcome to Q-Chem
     A Quantum Leap Into The Future Of Chemistry


 Q-Chem 5.1, Q-Chem, Inc., Pleasanton, CA (2018)

 Yihan Shao,  Zhengting Gan,  E. Epifanovsky,  A. T. B. Gilbert,  M. Wormit,  
 J. Kussmann,  A. W. Lange,  A. Behn,  Jia Deng,  Xintian Feng,  D. Ghosh,  
 M. Goldey,  P. R. Horn,  L. D. Jacobson,  I. Kaliman,  T. Kus,  A. Landau,  
 Jie Liu,  E. I. Proynov,  R. M. Richard,  R. P. Steele,  E. J. Sundstrom,  
 H. L. Woodcock III,  P. M. Zimmerman,  D. Zuev,  B. Albrecht,  E. Alguire,  
 S. A. Baeppler,  D. Barton,  Z. Benda,  Y. A. Bernard,  E. J. Berquist,  
 K. B. Bravaya,  H. Burton,  D. Casanova,  Chun-Min Chang,  Yunqing Chen,  
 A. Chien,  K. D. Closser,  M. P. Coons,  S. Coriani,  S. Dasgupta,  
 A. L. Dempwolff,  M. Diedenhofen,  Hainam Do,  R. G. Edgar,  Po-Tung Fang,  
 S. Faraji,  S. Fatehi,  Qingguo Feng,  K. D. Fenk,  J. Fosso-Tande,  
 J. Gayvert,  Qinghui Ge,  A. Ghysels,  G. Gidofalvi,  J. Gomes,  
 J. Gonthier,  A. Gunina,  D. Hait,  M. W. D. Hanson-Heine,  
 P. H. P. Harbach,  A. W. Hauser,  J. E. Herr,  E. G. Hohenstein,  
 Z. C. Holden,  Kerwin Hui,  B. C. Huynh,  T.-C. Jagau,  Hyunjun Ji,  
 B. Kaduk,  K. Khistyaev,  Jaehoon Kim,  P. Klunzinger,  K. Koh,  
 D. Kosenkov,  L. Koulias,  T. Kowalczyk,  C. M. Krauter,  A. Kunitsa,  
 Ka Un Lao,  A. Laurent,  K. V. Lawler,  Joonho Lee,  D. Lefrancois,  
 S. Lehtola,  D. S. Levine,  Yi-Pei Li,  You-Sheng Lin,  Fenglai Liu,  
 E. Livshits,  A. Luenser,  P. Manohar,  E. Mansoor,  S. F. Manzer,  
 Shan-Ping Mao,  Yuezhi Mao,  N. Mardirossian,  A. V. Marenich,  
 T. Markovich,  L. A. Martinez-Martinez,  S. A. Maurer,  N. J. Mayhall,  
 S. C. McKenzie,  J.-M. Mewes,  A. F. Morrison,  J. W. Mullinax,  K. Nanda,  
 T. S. Nguyen-Beck,  R. Olivares-Amaya,  J. A. Parkhill,  T. M. Perrine,  
 F. Plasser,  P. Pokhilko,  S. Prager,  A. Prociuk,  E. Ramos,  D. R. Rehn,  
 F. Rob,  M. Schneider,  N. Sergueev,  S. M. Sharada,  S. Sharma,  
 D. W. Small,  T. Stauch,  T. Stein,  Yu-Chuan Su,  A. J. W. Thom,  
 A. Tkatchenko,  T. Tsuchimochi,  N. M. Tubman,  L. Vogt,  M. L. Vidal,  
 O. Vydrov,  M. A. Watson,  J. Wenzel,  M. de Wergifosse,  T. A. Wesolowski,  
 A. White,  J. Witte,  A. Yamada,  Jun Yang,  K. Yao,  S. Yeganeh,  
 S. R. Yost,  Zhi-Qiang You,  A. Zech,  Igor Ying Zhang,  Xing Zhang,  
 Yan Zhao,  Ying Zhu,  B. R. Brooks,  G. K. L. Chan,  C. J. Cramer,  
 M. S. Gordon,  W. J. Hehre,  A. Klamt,  M. W. Schmidt,  C. D. Sherrill,  
 D. G. Truhlar,  A. Aspuru-Guzik,  R. Baer,  A. T. Bell,  N. A. Besley,  
 Jeng-Da Chai,  A. E. DePrince, III,  R. A. DiStasio Jr.,  A. Dreuw,  
 B. D. Dunietz,  T. R. Furlani,  Chao-Ping Hsu,  Yousung Jung,  Jing Kong,  
 D. S. Lambrecht,  WanZhen Liang,  C. Ochsenfeld,  V. A. Rassolov,  
 L. V. Slipchenko,  J. E. Subotnik,  T. Van Voorhis,  J. M. Herbert,  
 A. I. Krylov,  P. M. W. Gill,  M. Head-Gordon

 Contributors to earlier versions of Q-Chem not listed above: 
 R. D. Adamson,  B. Austin,  J. Baker,  G. J. O. Beran,  K. Brandhorst,  
 S. T. Brown,  E. F. C. Byrd,  A. K. Chakraborty,  C.-L. Cheng,  
 Siu Hung Chien,  D. M. Chipman,  D. L. Crittenden,  H. Dachsel,  
 R. J. Doerksen,  A. D. Dutoi,  L. Fusti-Molnar,  W. A. Goddard III,  
 A. Golubeva-Zadorozhnaya,  S. R. Gwaltney,  G. Hawkins,  A. Heyden,  
 S. Hirata,  G. Kedziora,  F. J. Keil,  C. Kelley,  Jihan Kim,  R. A. King,  
 R. Z. Khaliullin,  P. P. Korambath,  W. Kurlancheek,  A. M. Lee,  M. S. Lee,  
 S. V. Levchenko,  Ching Yeh Lin,  D. Liotard,  R. C. Lochan,  I. Lotan,  
 P. E. Maslen,  N. Nair,  D. P. O'Neill,  D. Neuhauser,  E. Neuscamman,  
 C. M. Oana,  R. Olson,  B. Peters,  R. Peverati,  P. A. Pieniazek,  
 Y. M. Rhee,  J. Ritchie,  M. A. Rohrdanz,  E. Rosta,  N. J. Russ,  
 H. F. Schaefer III,  N. E. Schultz,  N. Shenvi,  A. C. Simmonett,  A. Sodt,  
 D. Stuck,  K. S. Thanthiriwatte,  V. Vanovschi,  Tao Wang,  A. Warshel,  
 C. F. Williams,  Q. Wu,  X. Xu,  W. Zhang

 Please cite Q-Chem as follows:
 Y. Shao et al., Mol. Phys. 113, 184-215 (2015)
 DOI: 10.1080/00268976.2014.952696

 Q-Chem 5.1.2 for Intel X86 EM64T Linux

 Parts of Q-Chem use Armadillo 8.300.2 (Tropical Shenanigans).
 http://arma.sourceforge.net/

 Q-Chem begins on Tue Jul  2 23:35:38 2019  

Host: 
0

     Scratch files written to /scratch/xuedong/qchem28473//
 Dec218 |scratch|qcdevops|jenkins|workspace|build_RNUM 6581   
Processing $rem in /home/qwang/software/qchem5.1.2/config/preferences.
 MEM_TOTAL  4000 
Core orbitals will be frozen
Input Ideriv = 1
Curr. Ideriv = -1
Max.  Ideriv = 1

Checking the input file for inconsistencies... 	...done.

--------------------------------------------------------------
User input:
--------------------------------------------------------------
$molecule
0 1
--
0 1
Si     2.014998435     0.321073490    -0.133289128
H     1.503542539     1.072357510     1.035552051
H     1.215154919    -0.917779499    -0.277040965
H     1.816801357     1.147049434    -1.346132733
C     3.832693717    -0.093902041     0.092465048
H     4.212738567    -0.647371106    -0.764407842
H     3.983063110    -0.702802282     0.982191073
H     4.425687573     0.812791426     0.199197617
--
0 1
Si    -2.390919290    -0.329757385    -0.003359260
H    -2.161149989    -1.499392684    -0.881682521
H    -1.868503860    -0.645281872     1.345640704
H    -1.624587287     0.817649796    -0.543374621
C    -4.221066664     0.084339358     0.077708653
H    -4.395188645     0.946014640     0.719711067
H    -4.789816064    -0.754248534     0.475738039
H    -4.609412785     0.316324992    -0.912446518
$end

$rem
BASIS = aug-cc-pVTZ
JOB_TYPE  =  BSSE
METHOD  =  MP2
SCF_CONVERGENCE  =  8
SCF_MAX_CYCLES  =  200
$end

--------------------------------------------------------------
 ----------------------------------------------------------------
             Standard Nuclear Orientation (Angstroms)
    I     Atom           X                Y                Z
 ----------------------------------------------------------------
    1      Si     -2.2170424965     0.2542029042     0.0464438772
    2      H      -1.7240701169     0.7787254620    -1.2474103778
    3      H      -1.3712305039    -0.8987546602     0.4343380596
    4      H      -2.0623965963     1.3113576606     1.0716347953
    5      C      -4.0151050592    -0.2693042988    -0.0953200345
    6      H      -4.3814909285    -0.6566825504     0.8537282933
    7      H      -4.1334067620    -1.0479308900    -0.8468040304
    8      H      -4.6417220098     0.5739193739    -0.3807173587
    9      Si      2.2117948976    -0.2335461050     0.0550368154
   10      H       2.0192155901    -1.2141406711     1.1475751087
   11      H       1.7147100546    -0.8306720512    -1.2053685755
   12      H       1.3965696791     0.9666817258     0.3555123807
   13      C       4.0252225970     0.2287965777    -0.1037295295
   14      H       4.1718950395     0.9524009160    -0.9036381566
   15      H       4.6297305516    -0.6487154524    -0.3266099789
   16      H       4.3949571613     0.6676622737     0.8213275279
 ----------------------------------------------------------------
 Molecular Point Group                 C1    NOp =  1
 Largest Abelian Subgroup              C1    NOp =  1
 Nuclear Repulsion Energy =   191.6953149309 hartrees
 There are       26 alpha and       26 beta electrons
 Requested basis set is aug-cc-pVTZ
 There are 168 shells and 468 basis functions

 Total QAlloc Memory Limit   4000 MB
 Mega-Array Size       188 MB
 MEM_STATIC part       192 MB
 A cutoff of  1.0D-11 yielded  11768 shell pairs
 There are     88278 function pairs (    112037 Cartesian)
 
 -------------------------------------------------------
 OpenMP Integral Computing Module                       
 Release: version 1.0, May 2013, Q-Chem Inc. Pittsburgh 
 -------------------------------------------------------
 Integral Job Info:
 Integral job number is                      11
 Integral operator is                         1
 short-range coefficients                     0
 long-range coefficients              100000000
 Omega coefficients                           0
 if combine SR and LR in K                    0
 Integral screening is                        0
 Integral computing path is                   2
 max size of driver memory is            800000
 size of driver memory is                776718
 size of scratch memory is             29531563
 max col of scratch BK array              10000
 max len of scratch array in speh3          662
 max len of scratch index in speh4           32
 max int batch size is                      520
 min int batch size is                       52
 fixed nKL is                                31
 max L of basis functions is                  3
 order of int derivative is                   0
 number of shells is                        168
 number of basis is                         528
 number of cartesian basis is               528
 number of contracted shell pairs         11768
 number of primitive shell pairs          32875
 maxK2 (contraction) of shell pair          169
 max number of K2 of shell pair               1
 max number of CS2 of shell pair           2184
 max number of PS2 of shell pair           3250
 mem total for path MDJ                  793852
 -------------------------------------------------------
 Smallest overlap matrix eigenvalue = 1.12E-05

 Scale SEOQF with 1.000000e-01/1.000000e-01/1.000000e-01

 Standard Electronic Orientation quadrupole field applied
 Nucleus-field energy     =     0.0000000165 hartrees
 Guess MOs from converged MOs on fragments

-----------------------------------------------------------------
 SCF on fragment 1 out of 2
/home/qwang/software/qchem5.1.2/exe/qcprog.exe /scratch/xuedong/qchem28473/Frg1.input /scratch/xuedong/qchem28473/Frg1/ > /dev/null 
 SCF on fragment 2 out of 2
/home/qwang/software/qchem5.1.2/exe/qcprog.exe /scratch/xuedong/qchem28473/Frg2.input /scratch/xuedong/qchem28473/Frg2/ > /dev/null 
-----------------------------------------------------------------
 Done with SCF on isolated fragments
-----------------------------------------------------------------

 User-specified occupied guess orbitals will be used
 A restricted Hartree-Fock SCF calculation will be
 performed using Pulay DIIS extrapolation
 SCF converges when DIIS error is below 1.0E-08
 using 6 threads for integral computing
 -------------------------------------------------------
 OpenMP Integral computing Module                
 Release: version 1.0, May 2013, Q-Chem Inc. Pittsburgh 
 -------------------------------------------------------
 ---------------------------------------
  Cycle       Energy         DIIS Error
 ---------------------------------------
    1    -660.6458265024      6.21E-05
    2    -660.6459854492      7.66E-06
    3    -660.6459902025      1.48E-06
    4    -660.6459904158      3.76E-07
    5    -660.6459904279      1.15E-07
    6    -660.6459904293      2.46E-08
    7    -660.6459904293      1.10E-08
    8    -660.6459904293      1.00E-08
    9    -660.6459904293      9.91E-09 Convergence criterion met
 ---------------------------------------
 SCF time:  CPU 1223.81 s  wall 203.95 s

-----------------------------------------------------------------
 SCF CP correction for fragment 1 out of 2
/home/qwang/software/qchem5.1.2/exe/qcprog.exe /scratch/xuedong/qchem28473/Frg1.input /scratch/xuedong/qchem28473/Frg1BSSE/ > /dev/null 
 SCF CP correction for fragment 2 out of 2
/home/qwang/software/qchem5.1.2/exe/qcprog.exe /scratch/xuedong/qchem28473/Frg2.input /scratch/xuedong/qchem28473/Frg2BSSE/ > /dev/null 
-----------------------------------------------------------------
 Done with counterpoise correction on fragments
-----------------------------------------------------------------

 SCF   energy in the final basis set = -660.64599043
 Total energy in the final basis set = -660.64599043
 
 Components of the MP2 correlation energy:
        aaaa  correlation energy =        -0.0561012835 au
        abab  correlation energy =        -0.5369393660 au
        bbbb  correlation energy =        -0.0561012835 au
        non-Brillouin singles    =        -0.0000000000 au

 Total  MP2   correlation energy =                    -0.64914193 au
        MP2         total energy =                  -661.29513236 au
 
 --------------------------------------------------------------
 
                    Orbital Energies (a.u.)
 --------------------------------------------------------------
 
 Alpha MOs
 -- Occupied --
-68.764 -68.764 -11.207 -11.207  -6.113  -6.113  -4.219  -4.219
 -4.219  -4.219  -4.218  -4.218  -0.948  -0.948  -0.701  -0.694
 -0.564  -0.564  -0.563  -0.563  -0.469  -0.468  -0.467  -0.465
 -0.455  -0.449
 -- Virtual --
  0.029   0.032   0.043   0.043   0.048   0.050   0.050   0.066
  0.069   0.070   0.073   0.076   0.090   0.092   0.100   0.105
  0.106   0.122   0.130   0.131   0.138   0.144   0.144   0.152
  0.152   0.157   0.161   0.164   0.165   0.170   0.174   0.179
  0.196   0.204   0.213   0.213   0.214   0.226   0.227   0.243
  0.247   0.261   0.261   0.264   0.269   0.286   0.293   0.296
  0.302   0.303   0.315   0.322   0.328   0.331   0.337   0.339
  0.340   0.344   0.352   0.355   0.358   0.358   0.362   0.363
  0.371   0.373   0.384   0.385   0.389   0.391   0.395   0.395
  0.414   0.417   0.418   0.426   0.433   0.437   0.439   0.450
  0.452   0.458   0.459   0.464   0.468   0.478   0.482   0.483
  0.491   0.495   0.502   0.509   0.521   0.530   0.538   0.545
  0.561   0.563   0.592   0.594   0.610   0.618   0.619   0.622
  0.632   0.647   0.649   0.661   0.668   0.674   0.677   0.682
  0.685   0.686   0.688   0.690   0.698   0.703   0.709   0.711
  0.718   0.726   0.737   0.742   0.752   0.769   0.781   0.819
  0.835   0.839   0.843   0.844   0.852   0.870   0.871   0.880
  0.888   0.894   0.899   0.906   0.922   0.944   0.952   0.956
  0.957   0.958   0.961   0.970   0.973   0.974   1.000   1.008
  1.016   1.023   1.036   1.041   1.045   1.059   1.061   1.071
  1.073   1.075   1.088   1.091   1.093   1.103   1.120   1.132
  1.136   1.145   1.146   1.154   1.156   1.159   1.160   1.167
  1.167   1.186   1.193   1.194   1.212   1.218   1.223   1.228
  1.232   1.234   1.238   1.263   1.270   1.272   1.282   1.287
  1.291   1.297   1.307   1.314   1.319   1.330   1.335   1.352
  1.359   1.363   1.374   1.397   1.403   1.405   1.419   1.422
  1.423   1.431   1.431   1.434   1.440   1.450   1.455   1.461
  1.469   1.471   1.479   1.482   1.497   1.502   1.505   1.530
  1.547   1.549   1.562   1.569   1.575   1.600   1.631   1.632
  1.636   1.644   1.662   1.663   1.671   1.675   1.695   1.702
  1.705   1.715   1.723   1.737   1.778   1.781   1.834   1.836
  1.841   1.844   1.857   1.860   1.879   1.894   1.905   1.913
  1.924   1.998   2.006   2.008   2.010   2.020   2.028   2.031
  2.038   2.039   2.042   2.063   2.099   2.102   2.125   2.131
  2.142   2.146   2.163   2.164   2.175   2.178   2.215   2.219
  2.231   2.232   2.285   2.288   2.294   2.305   2.319   2.357
  2.365   2.370   2.384   2.396   2.750   2.752   3.100   3.104
  3.116   3.123   3.145   3.186   3.316   3.319   3.416   3.418
  3.418   3.420   3.470   3.518   3.563   3.567   3.567   3.577
  3.615   3.615   3.639   3.643   3.660   3.664   3.664   3.664
  3.716   3.740   3.756   3.794   3.831   3.831   3.835   3.842
  3.944   3.947   3.949   3.949   4.006   4.017   4.025   4.028
  4.049   4.055   4.078   4.089   4.089   4.095   4.115   4.116
  4.120   4.121   4.125   4.131   4.140   4.153   4.156   4.180
  4.183   4.200   4.212   4.215   4.219   4.224   4.227   4.234
  4.241   4.247   4.249   4.301   4.338   4.341   4.344   4.353
  4.359   4.380   4.405   4.415   4.502   4.510   4.514   4.519
  4.534   4.539   4.548   4.560   4.586   4.593   4.602   4.608
  4.614   4.619   4.756   4.772   4.774   4.780   4.795   4.801
  4.807   4.815   4.819   4.846   4.849   4.849   4.860   4.863
  4.929   4.963   5.007   5.008   5.021   5.025   5.030   5.033
  5.093   5.101   5.159   5.164   5.165   5.170   5.241   5.243
  5.249   5.256   5.334   5.353   5.565   5.566   5.603   5.604
  5.604   5.605   5.624   5.624   5.941   5.943   6.104   6.107
  6.107   6.111   6.696   6.699   6.699   6.700   9.036   9.190
 17.022  17.085
 --------------------------------------------------------------
 
          Ground-State Mulliken Net Atomic Charges

     Atom                 Charge (a.u.)
  ----------------------------------------
      1 Si                    1.297881
      2 H                    -0.345467
      3 H                    -0.324279
      4 H                    -0.358970
      5 C                    -1.102484
      6 H                     0.276807
      7 H                     0.287859
      8 H                     0.269195
      9 Si                    1.298339
     10 H                    -0.356000
     11 H                    -0.342895
     12 H                    -0.326664
     13 C                    -1.105508
     14 H                     0.286391
     15 H                     0.269378
     16 H                     0.276418
  ----------------------------------------
  Sum of atomic charges =     0.000000

 -----------------------------------------------------------------
                    Cartesian Multipole Moments
 -----------------------------------------------------------------
    Charge (ESU x 10^10)
                 0.0000
    Dipole Moment (Debye)
         X       0.0011      Y      -0.0241      Z      -0.1144
       Tot       0.1169
    Quadrupole Moments (Debye-Ang)
        XX     -39.9421     XY       0.6876     YY     -46.6495
        XZ      -0.0093     YZ      -0.0012     ZZ     -46.5510
    Octopole Moments (Debye-Ang^2)
       XXX      -0.1113    XXY      -0.0165    XYY       0.1987
       YYY      -0.5079    XXZ      -0.1570    XYZ       1.2010
       YYZ      -2.5126    XZZ      -0.0192    YZZ       0.1260
       ZZZ       0.7862
    Hexadecapole Moments (Debye-Ang^3)
      XXXX   -2430.4643   XXXY     -17.6239   XXYY    -416.9172
      XYYY       4.1914   YYYY    -133.1674   XXXZ       0.6594
      XXYZ      -0.4868   XYYZ       0.7159   YYYZ      -0.0319
      XXZZ    -415.6575   XYZZ      12.9799   YYZZ     -41.8904
      XZZZ      -1.1100   YZZZ       0.0274   ZZZZ    -115.7653
 -----------------------------------------------------------------

 ---------------------------------------------------------------------
 *                     Fragment's binding energy                     *
 ---------------------------------------------------------------------
    Fragment           E(TOTAL)         E(CP-CORR)           DE(BSSE)
 ---------------------------------------------------------------------
           1    -330.6467391619    -330.6469491411       0.0002099791
           2    -330.6467390158    -330.6469507100       0.0002116942
     Complex    -661.2951323623
 ---------------------------------------------------------------------
  DE, kJ/mol      -4.3431131780      -3.2359966354
 ---------------------------------------------------------------------

Archival summary:
1\1\mm2.localdomain\SP\MP2\BasisUnspecified\i2212\xuedong\WedJul300:09:272019WedJul300:09:272019\0\\#,MP2,BasisUnspecified,\\0,1\Si\H,1,1.48063\H,1,1.48064,2,108.504\H,1,1.4817,2,108.336,3,-117.462,0\C,1,1.87816,2,110.577,3,121.399,0\H,5,1.08856,1,110.845,2,60.0131,0\H,5,1.08859,1,110.815,2,-179.959,0\H,5,1.08864,1,110.795,2,-59.9914,0\H,4,3.33868,1,90.4762,2,59.1901,0\Si,9,1.48161,4,91.85,1,-153.073,0\H,10,1.48061,9,108.324,4,57.8608,0\H,10,1.48071,9,108.342,4,-59.6539,0\C,10,1.87808,9,110.451,4,179.109,0\H,13,1.08857,10,110.826,9,-59.9862,0\H,13,1.08857,10,110.831,9,60.0438,0\H,13,1.08864,10,110.791,9,-179.971,0\\HF=-660.64599\MP2=-661.295132\\@

 Total job time:  2029.18s(wall), 4374.09s(cpu) 
 Wed Jul  3 00:09:27 2019

        *************************************************************
        *                                                           *
        *  Thank you very much for using Q-Chem.  Have a nice day.  *
        *                                                           *
        *************************************************************


