
Running Job 1 of 3 ../qm_inp/SiH3CH3_SiH3CH3_con3.080.qcinp
qchem ../qm_inp/SiH3CH3_SiH3CH3_con3.080.qcinp_34081.0 /scratch/xuedong/qchem34081/ 1
/home/qwang/software/qchem5.1.2/exe/qcprog.exe_s ../qm_inp/SiH3CH3_SiH3CH3_con3.080.qcinp_34081.0 /scratch/xuedong/qchem34081/
Check license passed

                  Welcome to Q-Chem
     A Quantum Leap Into The Future Of Chemistry


 Q-Chem 5.1, Q-Chem, Inc., Pleasanton, CA (2018)

 Yihan Shao,  Zhengting Gan,  E. Epifanovsky,  A. T. B. Gilbert,  M. Wormit,  
 J. Kussmann,  A. W. Lange,  A. Behn,  Jia Deng,  Xintian Feng,  D. Ghosh,  
 M. Goldey,  P. R. Horn,  L. D. Jacobson,  I. Kaliman,  T. Kus,  A. Landau,  
 Jie Liu,  E. I. Proynov,  R. M. Richard,  R. P. Steele,  E. J. Sundstrom,  
 H. L. Woodcock III,  P. M. Zimmerman,  D. Zuev,  B. Albrecht,  E. Alguire,  
 S. A. Baeppler,  D. Barton,  Z. Benda,  Y. A. Bernard,  E. J. Berquist,  
 K. B. Bravaya,  H. Burton,  D. Casanova,  Chun-Min Chang,  Yunqing Chen,  
 A. Chien,  K. D. Closser,  M. P. Coons,  S. Coriani,  S. Dasgupta,  
 A. L. Dempwolff,  M. Diedenhofen,  Hainam Do,  R. G. Edgar,  Po-Tung Fang,  
 S. Faraji,  S. Fatehi,  Qingguo Feng,  K. D. Fenk,  J. Fosso-Tande,  
 J. Gayvert,  Qinghui Ge,  A. Ghysels,  G. Gidofalvi,  J. Gomes,  
 J. Gonthier,  A. Gunina,  D. Hait,  M. W. D. Hanson-Heine,  
 P. H. P. Harbach,  A. W. Hauser,  J. E. Herr,  E. G. Hohenstein,  
 Z. C. Holden,  Kerwin Hui,  B. C. Huynh,  T.-C. Jagau,  Hyunjun Ji,  
 B. Kaduk,  K. Khistyaev,  Jaehoon Kim,  P. Klunzinger,  K. Koh,  
 D. Kosenkov,  L. Koulias,  T. Kowalczyk,  C. M. Krauter,  A. Kunitsa,  
 Ka Un Lao,  A. Laurent,  K. V. Lawler,  Joonho Lee,  D. Lefrancois,  
 S. Lehtola,  D. S. Levine,  Yi-Pei Li,  You-Sheng Lin,  Fenglai Liu,  
 E. Livshits,  A. Luenser,  P. Manohar,  E. Mansoor,  S. F. Manzer,  
 Shan-Ping Mao,  Yuezhi Mao,  N. Mardirossian,  A. V. Marenich,  
 T. Markovich,  L. A. Martinez-Martinez,  S. A. Maurer,  N. J. Mayhall,  
 S. C. McKenzie,  J.-M. Mewes,  A. F. Morrison,  J. W. Mullinax,  K. Nanda,  
 T. S. Nguyen-Beck,  R. Olivares-Amaya,  J. A. Parkhill,  T. M. Perrine,  
 F. Plasser,  P. Pokhilko,  S. Prager,  A. Prociuk,  E. Ramos,  D. R. Rehn,  
 F. Rob,  M. Schneider,  N. Sergueev,  S. M. Sharada,  S. Sharma,  
 D. W. Small,  T. Stauch,  T. Stein,  Yu-Chuan Su,  A. J. W. Thom,  
 A. Tkatchenko,  T. Tsuchimochi,  N. M. Tubman,  L. Vogt,  M. L. Vidal,  
 O. Vydrov,  M. A. Watson,  J. Wenzel,  M. de Wergifosse,  T. A. Wesolowski,  
 A. White,  J. Witte,  A. Yamada,  Jun Yang,  K. Yao,  S. Yeganeh,  
 S. R. Yost,  Zhi-Qiang You,  A. Zech,  Igor Ying Zhang,  Xing Zhang,  
 Yan Zhao,  Ying Zhu,  B. R. Brooks,  G. K. L. Chan,  C. J. Cramer,  
 M. S. Gordon,  W. J. Hehre,  A. Klamt,  M. W. Schmidt,  C. D. Sherrill,  
 D. G. Truhlar,  A. Aspuru-Guzik,  R. Baer,  A. T. Bell,  N. A. Besley,  
 Jeng-Da Chai,  A. E. DePrince, III,  R. A. DiStasio Jr.,  A. Dreuw,  
 B. D. Dunietz,  T. R. Furlani,  Chao-Ping Hsu,  Yousung Jung,  Jing Kong,  
 D. S. Lambrecht,  WanZhen Liang,  C. Ochsenfeld,  V. A. Rassolov,  
 L. V. Slipchenko,  J. E. Subotnik,  T. Van Voorhis,  J. M. Herbert,  
 A. I. Krylov,  P. M. W. Gill,  M. Head-Gordon

 Contributors to earlier versions of Q-Chem not listed above: 
 R. D. Adamson,  B. Austin,  J. Baker,  G. J. O. Beran,  K. Brandhorst,  
 S. T. Brown,  E. F. C. Byrd,  A. K. Chakraborty,  C.-L. Cheng,  
 Siu Hung Chien,  D. M. Chipman,  D. L. Crittenden,  H. Dachsel,  
 R. J. Doerksen,  A. D. Dutoi,  L. Fusti-Molnar,  W. A. Goddard III,  
 A. Golubeva-Zadorozhnaya,  S. R. Gwaltney,  G. Hawkins,  A. Heyden,  
 S. Hirata,  G. Kedziora,  F. J. Keil,  C. Kelley,  Jihan Kim,  R. A. King,  
 R. Z. Khaliullin,  P. P. Korambath,  W. Kurlancheek,  A. M. Lee,  M. S. Lee,  
 S. V. Levchenko,  Ching Yeh Lin,  D. Liotard,  R. C. Lochan,  I. Lotan,  
 P. E. Maslen,  N. Nair,  D. P. O'Neill,  D. Neuhauser,  E. Neuscamman,  
 C. M. Oana,  R. Olson,  B. Peters,  R. Peverati,  P. A. Pieniazek,  
 Y. M. Rhee,  J. Ritchie,  M. A. Rohrdanz,  E. Rosta,  N. J. Russ,  
 H. F. Schaefer III,  N. E. Schultz,  N. Shenvi,  A. C. Simmonett,  A. Sodt,  
 D. Stuck,  K. S. Thanthiriwatte,  V. Vanovschi,  Tao Wang,  A. Warshel,  
 C. F. Williams,  Q. Wu,  X. Xu,  W. Zhang

 Please cite Q-Chem as follows:
 Y. Shao et al., Mol. Phys. 113, 184-215 (2015)
 DOI: 10.1080/00268976.2014.952696

 Q-Chem 5.1.2 for Intel X86 EM64T Linux

 Parts of Q-Chem use Armadillo 8.300.2 (Tropical Shenanigans).
 http://arma.sourceforge.net/

 Q-Chem begins on Wed Jul  3 17:00:08 2019  

Host: 
0

     Scratch files written to /scratch/xuedong/qchem34081//
 Dec218 |scratch|qcdevops|jenkins|workspace|build_RNUM 6581   
Processing $rem in /home/qwang/software/qchem5.1.2/config/preferences.
 MEM_TOTAL  4000 
Core orbitals will be frozen
Input Ideriv = 1
Curr. Ideriv = -1
Max.  Ideriv = 1

Checking the input file for inconsistencies... 	...done.

--------------------------------------------------------------
User input:
--------------------------------------------------------------
$molecule
0 1
Si     3.762272567     0.100944777     0.006072646
H     3.981291986     1.564414477     0.064186564
H     4.389924271    -0.416429655    -1.231422106
H     4.439607953    -0.519141536     1.167849490
C     1.925645521    -0.291305561     0.027271718
H     1.759401550    -1.366486120    -0.015128601
H     1.421772543     0.162315456    -0.824405717
H     1.458679937     0.087942478     0.934592371
Si    -3.157928405    -0.123569979     0.011294645
H    -3.387621726    -1.402472616    -0.699187117
H    -3.961380846     0.929385781    -0.651115537
H    -3.638369711    -0.270566405     1.404375741
C    -1.334331319     0.324889361    -0.012699694
H    -1.159949573     1.264708631     0.508551404
H    -0.975666730     0.434107177    -1.034788968
H    -0.737963018    -0.446012151     0.471972569
$end

$rem
BASIS = aug-cc-pVTZ
JOB_TYPE  =  SP
METHOD  =  MP2
SCF_MAX_CYCLES  =  200
$end

--------------------------------------------------------------
 ----------------------------------------------------------------
             Standard Nuclear Orientation (Angstroms)
    I     Atom           X                Y                Z
 ----------------------------------------------------------------
    1      Si      3.4632663397     0.0623470470    -0.0001348869
    2      H       3.6994171193     1.5173491050     0.1423155142
    3      H       4.0842432911    -0.3898176597    -1.2662118709
    4      H       4.1338459687    -0.6317872199     1.1230375293
    5      C       1.6221866822    -0.3090476307     0.0004330661
    6      H       1.4433571627    -1.3779620920    -0.1039218895
    7      H       1.1232555815     0.1989436642    -0.8229909191
    8      H       1.1601144227     0.0224682965     0.9287127201
    9      Si     -3.4590842420    -0.0814515688     0.0000076261
   10      H      -3.7040547802    -1.3143282947    -0.7830247647
   11      H      -4.2504748129     1.0173656647    -0.5994425873
   12      H      -3.9405595764    -0.3032186605     1.3827974139
   13      C      -1.6303774481     0.3463676612    -0.0000834248
   14      H      -1.4447698121     1.2523485990     0.5744775436
   15      H      -1.2709386229     0.5103696763    -1.0145499707
   16      H      -1.0428407131    -0.4581879566     0.4384850842
 ----------------------------------------------------------------
 Molecular Point Group                 C1    NOp =  1
 Largest Abelian Subgroup              C1    NOp =  1
 Nuclear Repulsion Energy =   192.4323292058 hartrees
 There are       26 alpha and       26 beta electrons
 Requested basis set is aug-cc-pVTZ
 There are 168 shells and 468 basis functions

 Total QAlloc Memory Limit   4000 MB
 Mega-Array Size       188 MB
 MEM_STATIC part       192 MB
 A cutoff of  1.0D-08 yielded  11584 shell pairs
 There are     86794 function pairs (    110181 Cartesian)
 
 -------------------------------------------------------
 OpenMP Integral Computing Module                       
 Release: version 1.0, May 2013, Q-Chem Inc. Pittsburgh 
 -------------------------------------------------------
 Integral Job Info:
 Integral job number is                      11
 Integral operator is                         1
 short-range coefficients                     0
 long-range coefficients              100000000
 Omega coefficients                           0
 if combine SR and LR in K                    0
 Integral screening is                        0
 Integral computing path is                   2
 max size of driver memory is            800000
 size of driver memory is                776718
 size of scratch memory is             29531563
 max col of scratch BK array              10000
 max len of scratch array in speh3          662
 max len of scratch index in speh4           32
 max int batch size is                      520
 min int batch size is                       52
 fixed nKL is                                31
 max L of basis functions is                  3
 order of int derivative is                   0
 number of shells is                        168
 number of basis is                         528
 number of cartesian basis is               528
 number of contracted shell pairs         11584
 number of primitive shell pairs          30678
 maxK2 (contraction) of shell pair          169
 max number of K2 of shell pair               1
 max number of CS2 of shell pair           2185
 max number of PS2 of shell pair           2886
 mem total for path MDJ                  787404
 -------------------------------------------------------
 Smallest overlap matrix eigenvalue = 9.99E-06

 Q-Chem warning in module stvman/mkSTV.C, line 306:

 Overlap eigenvalue is smaller than square root of threshold
 Use THRESH >= 12 to get rid of this warning


 Scale SEOQF with 1.000000e-01/1.000000e-01/1.000000e-01

 Standard Electronic Orientation quadrupole field applied
 Nucleus-field energy     =     0.0000000167 hartrees
 Guess from superposition of atomic densities
 Warning:  Energy on first SCF cycle will be non-variational
 SAD guess density has 52.000000 electrons

 -----------------------------------------------------------------------
  General SCF calculation program by
  Eric Jon Sundstrom, Paul Horn, Yuezhi Mao, Dmitri Zuev, Alec White,
  David Stuck, Shaama M.S., Shane Yost, Joonho Lee, David Small,
  Daniel Levine, Susi Lehtola, Hugh Burton, Evgeny Epifanovsky
 -----------------------------------------------------------------------
 Hartree-Fock
 using 6 threads for integral computing
 -------------------------------------------------------
 OpenMP Integral computing Module                
 Release: version 1.0, May 2013, Q-Chem Inc. Pittsburgh 
 -------------------------------------------------------
 A restricted SCF calculation will be
 performed using DIIS
 SCF converges when DIIS error is below 1.0e-05
 ---------------------------------------
  Cycle       Energy         DIIS error
 ---------------------------------------
    1    -660.9834713894      1.47e-02  
    2    -660.5840444203      1.12e-03  
    3    -660.6358987684      3.30e-04  
    4    -660.6409842191      1.35e-04  
    5    -660.6417298062      1.70e-05  
    6    -660.6417526674      3.36e-06  Convergence criterion met
 ---------------------------------------
 SCF time:   CPU 544.10s  wall 91.00s 
 SCF   energy in the final basis set =     -660.6417526674
 Total energy in the final basis set =     -660.6417526674
 
 Components of the MP2 correlation energy:
        aaaa  correlation energy =        -0.0565970190 au
        abab  correlation energy =        -0.5383447581 au
        bbbb  correlation energy =        -0.0565970190 au
        non-Brillouin singles    =        -0.0000000000 au

 Total  MP2   correlation energy =                    -0.65153880 au
        MP2         total energy =                  -661.29329146 au
 
 --------------------------------------------------------------
 
                    Orbital Energies (a.u.)
 --------------------------------------------------------------
 
 Alpha MOs
 -- Occupied --
-68.766 -68.766 -11.209 -11.209  -6.115  -6.115  -4.221  -4.221
 -4.221  -4.221  -4.221  -4.221  -0.959  -0.945  -0.703  -0.697
 -0.575  -0.568  -0.566  -0.559  -0.471  -0.471  -0.470  -0.468
 -0.465  -0.443
 -- Virtual --
  0.027   0.037   0.039   0.040   0.045   0.055   0.058   0.063
  0.063   0.066   0.073   0.074   0.078   0.088   0.091   0.101
  0.105   0.112   0.129   0.136   0.141   0.142   0.143   0.148
  0.149   0.155   0.159   0.165   0.166   0.167   0.183   0.186
  0.195   0.199   0.202   0.213   0.223   0.228   0.232   0.237
  0.249   0.253   0.257   0.261   0.265   0.281   0.289   0.291
  0.292   0.297   0.306   0.308   0.320   0.323   0.326   0.329
  0.331   0.336   0.337   0.344   0.348   0.352   0.356   0.359
  0.366   0.368   0.378   0.382   0.388   0.404   0.412   0.414
  0.418   0.432   0.435   0.439   0.444   0.446   0.458   0.462
  0.470   0.472   0.477   0.478   0.481   0.490   0.496   0.499
  0.515   0.518   0.520   0.527   0.531   0.532   0.540   0.559
  0.573   0.589   0.595   0.598   0.610   0.624   0.630   0.635
  0.642   0.647   0.653   0.656   0.663   0.670   0.673   0.679
  0.688   0.693   0.696   0.702   0.706   0.719   0.724   0.736
  0.747   0.755   0.760   0.784   0.786   0.805   0.806   0.827
  0.832   0.841   0.846   0.851   0.856   0.881   0.887   0.892
  0.897   0.903   0.907   0.918   0.930   0.944   0.953   0.960
  0.966   0.976   0.987   0.991   1.000   1.006   1.015   1.017
  1.020   1.024   1.032   1.036   1.049   1.051   1.061   1.064
  1.073   1.079   1.088   1.099   1.103   1.109   1.119   1.134
  1.139   1.139   1.151   1.156   1.162   1.169   1.175   1.181
  1.189   1.194   1.198   1.208   1.211   1.225   1.229   1.242
  1.250   1.254   1.268   1.277   1.284   1.289   1.298   1.299
  1.309   1.320   1.325   1.335   1.346   1.348   1.353   1.356
  1.362   1.382   1.391   1.395   1.406   1.410   1.418   1.430
  1.436   1.447   1.452   1.458   1.462   1.469   1.472   1.483
  1.498   1.503   1.509   1.515   1.533   1.543   1.551   1.559
  1.570   1.577   1.585   1.598   1.613   1.616   1.653   1.665
  1.675   1.675   1.682   1.691   1.693   1.701   1.731   1.742
  1.749   1.773   1.794   1.798   1.800   1.832   1.856   1.865
  1.876   1.889   1.899   1.917   1.938   1.950   1.954   1.974
  2.005   2.012   2.018   2.024   2.040   2.043   2.052   2.073
  2.083   2.092   2.102   2.118   2.128   2.132   2.146   2.163
  2.172   2.181   2.187   2.192   2.196   2.213   2.227   2.261
  2.263   2.287   2.291   2.297   2.308   2.318   2.378   2.405
  2.415   2.426   2.467   2.498   2.793   2.882   3.105   3.114
  3.120   3.124   3.201   3.236   3.347   3.377   3.425   3.433
  3.446   3.458   3.471   3.478   3.556   3.570   3.604   3.619
  3.627   3.652   3.689   3.692   3.703   3.711   3.720   3.723
  3.738   3.749   3.781   3.801   3.875   3.897   3.925   3.934
  3.959   3.970   3.989   3.992   3.992   4.004   4.047   4.064
  4.071   4.079   4.091   4.103   4.107   4.122   4.127   4.130
  4.133   4.136   4.142   4.149   4.168   4.174   4.184   4.191
  4.193   4.210   4.216   4.217   4.219   4.228   4.232   4.239
  4.262   4.295   4.312   4.334   4.337   4.343   4.344   4.353
  4.357   4.367   4.401   4.428   4.510   4.516   4.531   4.536
  4.543   4.562   4.584   4.592   4.602   4.610   4.619   4.624
  4.642   4.672   4.775   4.778   4.791   4.800   4.807   4.813
  4.818   4.827   4.829   4.840   4.881   4.887   4.901   4.909
  4.995   4.998   5.009   5.019   5.026   5.050   5.057   5.079
  5.089   5.124   5.187   5.205   5.219   5.246   5.257   5.263
  5.273   5.291   5.387   5.439   5.592   5.605   5.615   5.623
  5.639   5.653   5.657   5.695   5.970   5.976   6.126   6.136
  6.148   6.175   6.724   6.731   6.734   6.757   9.211   9.240
 17.563  17.798
 --------------------------------------------------------------
 
          Ground-State Mulliken Net Atomic Charges

     Atom                 Charge (a.u.)
  ----------------------------------------
      1 Si                    1.236593
      2 H                    -0.375133
      3 H                    -0.399022
      4 H                    -0.395589
      5 C                    -1.025303
      6 H                     0.322991
      7 H                     0.336239
      8 H                     0.306654
      9 Si                    1.260568
     10 H                    -0.378154
     11 H                    -0.396057
     12 H                    -0.392492
     13 C                    -1.004563
     14 H                     0.315046
     15 H                     0.297143
     16 H                     0.291024
  ----------------------------------------
  Sum of atomic charges =    -0.000053

 -----------------------------------------------------------------
                    Cartesian Multipole Moments
 -----------------------------------------------------------------
    Charge (ESU x 10^10)
                -0.0003
    Dipole Moment (Debye)
         X       0.0108      Y       0.0212      Z       0.0025
       Tot       0.0239
    Quadrupole Moments (Debye-Ang)
        XX     -55.5649     XY      -0.8770     YY     -46.5739
        XZ      -0.0120     YZ       0.0084     ZZ     -46.5651
    Octopole Moments (Debye-Ang^2)
       XXX       0.1657    XXY       0.0287    XYY       0.3619
       YYY      -1.8810    XXZ       0.0768    XYZ      -0.3061
       YYZ       1.2232    XZZ      -0.4719    YZZ       2.3314
       ZZZ      -1.2868
    Hexadecapole Moments (Debye-Ang^3)
      XXXX   -2815.7889   XXXY       7.7052   XXYY    -485.5551
      XYYY     -13.9376   YYYY    -124.8653   XXXZ      -1.1670
      XXYZ       3.0165   XYYZ      -6.6032   YYYZ       0.5722
      XXZZ    -490.4011   XYZZ       0.3313   YYZZ     -40.1177
      XZZZ       6.8245   YZZZ      -0.1841   ZZZZ    -114.1664
 -----------------------------------------------------------------
Archival summary:
1\1\mm2.localdomain\SP\MP2\BasisUnspecified\i2212\xuedong\WedJul317:09:112019WedJul317:09:112019\0\\#,MP2,BasisUnspecified,\\0,1\Si\H,1,1.48089\H,1,1.48091,2,108.381\H,1,1.48092,2,108.378,3,117.417,0\C,1,1.87808,2,110.567,3,-121.294,0\H,5,1.08851,1,110.927,2,-179.937,0\H,5,1.08869,1,110.845,2,-59.996,0\H,5,1.08875,1,110.826,2,59.9946,0\H,6,2.30746,5,116.548,1,-168.039,0\C,9,1.08863,6,99.2438,5,-92.5207,0\H,10,1.08858,9,107.96,6,54.0965,0\H,10,1.08878,9,108.118,6,-62.6049,0\Si,10,1.87817,9,110.862,6,175.757,0\H,13,1.48088,10,110.546,9,60.0552,0\H,13,1.48088,10,110.544,9,-179.931,0\H,13,1.48091,10,110.522,9,-59.9389,0\\HF=-660.641753\MP2=-661.293291\\@

 Total job time:  542.95s(wall), 3220.24s(cpu) 
 Wed Jul  3 17:09:11 2019

        *************************************************************
        *                                                           *
        *  Thank you very much for using Q-Chem.  Have a nice day.  *
        *                                                           *
        *************************************************************



Running Job 2 of 3 ../qm_inp/SiH3CH3_SiH3CH3_con3.080.qcinp
qchem ../qm_inp/SiH3CH3_SiH3CH3_con3.080.qcinp_34081.1 /scratch/xuedong/qchem34081/ 1
/home/qwang/software/qchem5.1.2/exe/qcprog.exe_s ../qm_inp/SiH3CH3_SiH3CH3_con3.080.qcinp_34081.1 /scratch/xuedong/qchem34081/
Check license passed

                  Welcome to Q-Chem
     A Quantum Leap Into The Future Of Chemistry


 Q-Chem 5.1, Q-Chem, Inc., Pleasanton, CA (2018)

 Yihan Shao,  Zhengting Gan,  E. Epifanovsky,  A. T. B. Gilbert,  M. Wormit,  
 J. Kussmann,  A. W. Lange,  A. Behn,  Jia Deng,  Xintian Feng,  D. Ghosh,  
 M. Goldey,  P. R. Horn,  L. D. Jacobson,  I. Kaliman,  T. Kus,  A. Landau,  
 Jie Liu,  E. I. Proynov,  R. M. Richard,  R. P. Steele,  E. J. Sundstrom,  
 H. L. Woodcock III,  P. M. Zimmerman,  D. Zuev,  B. Albrecht,  E. Alguire,  
 S. A. Baeppler,  D. Barton,  Z. Benda,  Y. A. Bernard,  E. J. Berquist,  
 K. B. Bravaya,  H. Burton,  D. Casanova,  Chun-Min Chang,  Yunqing Chen,  
 A. Chien,  K. D. Closser,  M. P. Coons,  S. Coriani,  S. Dasgupta,  
 A. L. Dempwolff,  M. Diedenhofen,  Hainam Do,  R. G. Edgar,  Po-Tung Fang,  
 S. Faraji,  S. Fatehi,  Qingguo Feng,  K. D. Fenk,  J. Fosso-Tande,  
 J. Gayvert,  Qinghui Ge,  A. Ghysels,  G. Gidofalvi,  J. Gomes,  
 J. Gonthier,  A. Gunina,  D. Hait,  M. W. D. Hanson-Heine,  
 P. H. P. Harbach,  A. W. Hauser,  J. E. Herr,  E. G. Hohenstein,  
 Z. C. Holden,  Kerwin Hui,  B. C. Huynh,  T.-C. Jagau,  Hyunjun Ji,  
 B. Kaduk,  K. Khistyaev,  Jaehoon Kim,  P. Klunzinger,  K. Koh,  
 D. Kosenkov,  L. Koulias,  T. Kowalczyk,  C. M. Krauter,  A. Kunitsa,  
 Ka Un Lao,  A. Laurent,  K. V. Lawler,  Joonho Lee,  D. Lefrancois,  
 S. Lehtola,  D. S. Levine,  Yi-Pei Li,  You-Sheng Lin,  Fenglai Liu,  
 E. Livshits,  A. Luenser,  P. Manohar,  E. Mansoor,  S. F. Manzer,  
 Shan-Ping Mao,  Yuezhi Mao,  N. Mardirossian,  A. V. Marenich,  
 T. Markovich,  L. A. Martinez-Martinez,  S. A. Maurer,  N. J. Mayhall,  
 S. C. McKenzie,  J.-M. Mewes,  A. F. Morrison,  J. W. Mullinax,  K. Nanda,  
 T. S. Nguyen-Beck,  R. Olivares-Amaya,  J. A. Parkhill,  T. M. Perrine,  
 F. Plasser,  P. Pokhilko,  S. Prager,  A. Prociuk,  E. Ramos,  D. R. Rehn,  
 F. Rob,  M. Schneider,  N. Sergueev,  S. M. Sharada,  S. Sharma,  
 D. W. Small,  T. Stauch,  T. Stein,  Yu-Chuan Su,  A. J. W. Thom,  
 A. Tkatchenko,  T. Tsuchimochi,  N. M. Tubman,  L. Vogt,  M. L. Vidal,  
 O. Vydrov,  M. A. Watson,  J. Wenzel,  M. de Wergifosse,  T. A. Wesolowski,  
 A. White,  J. Witte,  A. Yamada,  Jun Yang,  K. Yao,  S. Yeganeh,  
 S. R. Yost,  Zhi-Qiang You,  A. Zech,  Igor Ying Zhang,  Xing Zhang,  
 Yan Zhao,  Ying Zhu,  B. R. Brooks,  G. K. L. Chan,  C. J. Cramer,  
 M. S. Gordon,  W. J. Hehre,  A. Klamt,  M. W. Schmidt,  C. D. Sherrill,  
 D. G. Truhlar,  A. Aspuru-Guzik,  R. Baer,  A. T. Bell,  N. A. Besley,  
 Jeng-Da Chai,  A. E. DePrince, III,  R. A. DiStasio Jr.,  A. Dreuw,  
 B. D. Dunietz,  T. R. Furlani,  Chao-Ping Hsu,  Yousung Jung,  Jing Kong,  
 D. S. Lambrecht,  WanZhen Liang,  C. Ochsenfeld,  V. A. Rassolov,  
 L. V. Slipchenko,  J. E. Subotnik,  T. Van Voorhis,  J. M. Herbert,  
 A. I. Krylov,  P. M. W. Gill,  M. Head-Gordon

 Contributors to earlier versions of Q-Chem not listed above: 
 R. D. Adamson,  B. Austin,  J. Baker,  G. J. O. Beran,  K. Brandhorst,  
 S. T. Brown,  E. F. C. Byrd,  A. K. Chakraborty,  C.-L. Cheng,  
 Siu Hung Chien,  D. M. Chipman,  D. L. Crittenden,  H. Dachsel,  
 R. J. Doerksen,  A. D. Dutoi,  L. Fusti-Molnar,  W. A. Goddard III,  
 A. Golubeva-Zadorozhnaya,  S. R. Gwaltney,  G. Hawkins,  A. Heyden,  
 S. Hirata,  G. Kedziora,  F. J. Keil,  C. Kelley,  Jihan Kim,  R. A. King,  
 R. Z. Khaliullin,  P. P. Korambath,  W. Kurlancheek,  A. M. Lee,  M. S. Lee,  
 S. V. Levchenko,  Ching Yeh Lin,  D. Liotard,  R. C. Lochan,  I. Lotan,  
 P. E. Maslen,  N. Nair,  D. P. O'Neill,  D. Neuhauser,  E. Neuscamman,  
 C. M. Oana,  R. Olson,  B. Peters,  R. Peverati,  P. A. Pieniazek,  
 Y. M. Rhee,  J. Ritchie,  M. A. Rohrdanz,  E. Rosta,  N. J. Russ,  
 H. F. Schaefer III,  N. E. Schultz,  N. Shenvi,  A. C. Simmonett,  A. Sodt,  
 D. Stuck,  K. S. Thanthiriwatte,  V. Vanovschi,  Tao Wang,  A. Warshel,  
 C. F. Williams,  Q. Wu,  X. Xu,  W. Zhang

 Please cite Q-Chem as follows:
 Y. Shao et al., Mol. Phys. 113, 184-215 (2015)
 DOI: 10.1080/00268976.2014.952696

 Q-Chem 5.1.2 for Intel X86 EM64T Linux

 Parts of Q-Chem use Armadillo 8.300.2 (Tropical Shenanigans).
 http://arma.sourceforge.net/

 Q-Chem begins on Wed Jul  3 17:09:11 2019  

Host: 
0

     Scratch files written to /scratch/xuedong/qchem34081//
 Dec218 |scratch|qcdevops|jenkins|workspace|build_RNUM 6581   
Processing $rem in /home/qwang/software/qchem5.1.2/config/preferences.
 MEM_TOTAL  4000 
Core orbitals will be frozen
Input Ideriv = 1
Curr. Ideriv = -1
Max.  Ideriv = 1

Checking the input file for inconsistencies... 	...done.

--------------------------------------------------------------
User input:
--------------------------------------------------------------

$molecule
0 1
Si     3.762272567     0.100944777     0.006072646
H     3.981291986     1.564414477     0.064186564
H     4.389924271    -0.416429655    -1.231422106
H     4.439607953    -0.519141536     1.167849490
C     1.925645521    -0.291305561     0.027271718
H     1.759401550    -1.366486120    -0.015128601
H     1.421772543     0.162315456    -0.824405717
H     1.458679937     0.087942478     0.934592371
@Si   -3.157928405    -0.123569979     0.011294645
@H    -3.387621726    -1.402472616    -0.699187117
@H    -3.961380846     0.929385781    -0.651115537
@H    -3.638369711    -0.270566405     1.404375741
@C    -1.334331319     0.324889361    -0.012699694
@H    -1.159949573     1.264708631     0.508551404
@H    -0.975666730     0.434107177    -1.034788968
@H    -0.737963018    -0.446012151     0.471972569
$end

$rem
BASIS = aug-cc-pVTZ
JOB_TYPE  =  SP
METHOD  =  MP2
SCF_MAX_CYCLES  =  200
$end

--------------------------------------------------------------
 ----------------------------------------------------------------
             Standard Nuclear Orientation (Angstroms)
    I     Atom           X                Y                Z
 ----------------------------------------------------------------
    1      Si      3.7622725670     0.1009447770     0.0060726460
    2      H       3.9812919860     1.5644144770     0.0641865640
    3      H       4.3899242710    -0.4164296550    -1.2314221060
    4      H       4.4396079530    -0.5191415360     1.1678494900
    5      C       1.9256455210    -0.2913055610     0.0272717180
    6      H       1.7594015500    -1.3664861200    -0.0151286010
    7      H       1.4217725430     0.1623154560    -0.8244057170
    8      H       1.4586799370     0.0879424780     0.9345923710
    9      GH     -3.1579284050    -0.1235699790     0.0112946450
   10      GH     -3.3876217260    -1.4024726160    -0.6991871170
   11      GH     -3.9613808460     0.9293857810    -0.6511155370
   12      GH     -3.6383697110    -0.2705664050     1.4043757410
   13      GH     -1.3343313190     0.3248893610    -0.0126996940
   14      GH     -1.1599495730     1.2647086310     0.5085514040
   15      GH     -0.9756667300     0.4341071770    -1.0347889680
   16      GH     -0.7379630180    -0.4460121510     0.4719725690
 ----------------------------------------------------------------
 Nuclear Repulsion Energy =    62.8465305472 hartrees
 There are       13 alpha and       13 beta electrons
 Requested basis set is aug-cc-pVTZ
 There are 168 shells and 468 basis functions

 Total QAlloc Memory Limit   4000 MB
 Mega-Array Size       188 MB
 MEM_STATIC part       192 MB
 A cutoff of  1.0D-08 yielded  11584 shell pairs
 There are     86794 function pairs (    110181 Cartesian)
 
 -------------------------------------------------------
 OpenMP Integral Computing Module                       
 Release: version 1.0, May 2013, Q-Chem Inc. Pittsburgh 
 -------------------------------------------------------
 Integral Job Info:
 Integral job number is                      11
 Integral operator is                         1
 short-range coefficients                     0
 long-range coefficients              100000000
 Omega coefficients                           0
 if combine SR and LR in K                    0
 Integral screening is                        0
 Integral computing path is                   2
 max size of driver memory is            800000
 size of driver memory is                776718
 size of scratch memory is             29531563
 max col of scratch BK array              10000
 max len of scratch array in speh3          662
 max len of scratch index in speh4           32
 max int batch size is                      520
 min int batch size is                       52
 fixed nKL is                                31
 max L of basis functions is                  3
 order of int derivative is                   0
 number of shells is                        168
 number of basis is                         528
 number of cartesian basis is               528
 number of contracted shell pairs         11584
 number of primitive shell pairs          30678
 maxK2 (contraction) of shell pair          169
 max number of K2 of shell pair               1
 max number of CS2 of shell pair           2185
 max number of PS2 of shell pair           2886
 mem total for path MDJ                  787404
 -------------------------------------------------------
 Smallest overlap matrix eigenvalue = 9.99E-06

 Q-Chem warning in module stvman/mkSTV.C, line 306:

 Overlap eigenvalue is smaller than square root of threshold
 Use THRESH >= 12 to get rid of this warning


 Scale SEOQF with 1.000000e-01/1.000000e-01/1.000000e-01

 Standard Electronic Orientation quadrupole field applied
 Nucleus-field energy     =     0.0000000100 hartrees
 Guess from superposition of atomic densities
 Warning:  Energy on first SCF cycle will be non-variational
 SAD guess density has 26.000000 electrons

 -----------------------------------------------------------------------
  General SCF calculation program by
  Eric Jon Sundstrom, Paul Horn, Yuezhi Mao, Dmitri Zuev, Alec White,
  David Stuck, Shaama M.S., Shane Yost, Joonho Lee, David Small,
  Daniel Levine, Susi Lehtola, Hugh Burton, Evgeny Epifanovsky
 -----------------------------------------------------------------------
 Hartree-Fock
 using 6 threads for integral computing
 -------------------------------------------------------
 OpenMP Integral computing Module                
 Release: version 1.0, May 2013, Q-Chem Inc. Pittsburgh 
 -------------------------------------------------------
 A restricted SCF calculation will be
 performed using DIIS
 SCF converges when DIIS error is below 1.0e-05
 ---------------------------------------
  Cycle       Energy         DIIS error
 ---------------------------------------
    1    -330.4723929618      1.04e-02  
    2    -330.2950928275      7.86e-04  
    3    -330.3203566521      2.33e-04  
    4    -330.3228309059      9.50e-05  
    5    -330.3231976968      1.18e-05  
    6    -330.3232088573      2.48e-06  Convergence criterion met
 ---------------------------------------
 SCF time:   CPU 457.78s  wall 77.00s 
 SCF   energy in the final basis set =     -330.3232088573
 Total energy in the final basis set =     -330.3232088573
 
 Components of the MP2 correlation energy:
        aaaa  correlation energy =        -0.0278617876 au
        abab  correlation energy =        -0.2681831482 au
        bbbb  correlation energy =        -0.0278617876 au
        non-Brillouin singles    =        -0.0000000000 au

 Total  MP2   correlation energy =                    -0.32390672 au
        MP2         total energy =                  -330.64711558 au
 
 --------------------------------------------------------------
 
                    Orbital Energies (a.u.)
 --------------------------------------------------------------
 
 Alpha MOs
 -- Occupied --
-68.766 -11.208  -6.115  -4.221  -4.221  -4.220  -0.950  -0.699
 -0.565  -0.565  -0.469  -0.469  -0.455
 -- Virtual --
  0.019   0.034   0.037   0.038   0.044   0.053   0.055   0.062
  0.063   0.068   0.073   0.075   0.078   0.085   0.089   0.090
  0.103   0.106   0.118   0.122   0.125   0.132   0.143   0.144
  0.149   0.156   0.162   0.165   0.170   0.182   0.192   0.195
  0.198   0.203   0.207   0.212   0.217   0.226   0.239   0.241
  0.244   0.251   0.256   0.261   0.277   0.285   0.293   0.294
  0.296   0.299   0.307   0.311   0.313   0.317   0.324   0.331
  0.336   0.339   0.343   0.347   0.350   0.354   0.363   0.369
  0.378   0.385   0.392   0.402   0.418   0.421   0.426   0.429
  0.432   0.437   0.441   0.442   0.448   0.450   0.458   0.471
  0.475   0.477   0.483   0.487   0.493   0.500   0.509   0.514
  0.525   0.527   0.533   0.538   0.547   0.553   0.565   0.567
  0.579   0.588   0.602   0.610   0.621   0.627   0.633   0.647
  0.650   0.656   0.658   0.666   0.669   0.680   0.683   0.691
  0.698   0.701   0.707   0.719   0.728   0.744   0.748   0.771
  0.784   0.790   0.797   0.804   0.813   0.815   0.838   0.844
  0.846   0.863   0.868   0.880   0.897   0.901   0.909   0.918
  0.924   0.932   0.934   0.939   0.949   0.960   0.976   0.994
  0.999   1.004   1.016   1.020   1.023   1.039   1.040   1.045
  1.050   1.061   1.067   1.073   1.077   1.089   1.092   1.097
  1.109   1.115   1.125   1.134   1.138   1.146   1.153   1.158
  1.162   1.169   1.176   1.180   1.182   1.186   1.192   1.200
  1.209   1.213   1.219   1.227   1.230   1.240   1.251   1.256
  1.262   1.268   1.290   1.296   1.299   1.306   1.317   1.323
  1.341   1.349   1.353   1.358   1.368   1.373   1.381   1.388
  1.391   1.407   1.410   1.414   1.422   1.436   1.445   1.455
  1.457   1.461   1.473   1.476   1.484   1.490   1.500   1.510
  1.528   1.548   1.560   1.576   1.586   1.605   1.608   1.613
  1.621   1.630   1.652   1.659   1.672   1.674   1.686   1.697
  1.702   1.713   1.734   1.750   1.760   1.781   1.785   1.808
  1.827   1.836   1.844   1.854   1.863   1.881   1.905   1.923
  1.931   1.945   1.946   1.958   1.974   1.980   1.998   2.022
  2.036   2.049   2.060   2.073   2.084   2.093   2.099   2.107
  2.128   2.139   2.158   2.160   2.187   2.194   2.203   2.216
  2.237   2.256   2.266   2.286   2.307   2.320   2.345   2.354
  2.395   2.420   2.429   2.464   2.474   2.493   2.500   2.514
  2.533   2.588   2.596   2.624   2.704   2.740   2.790   2.812
  2.821   2.891   3.004   3.026   3.115   3.126   3.199   3.242
  3.391   3.440   3.464   3.474   3.603   3.623   3.636   3.699
  3.701   3.723   3.731   3.760   3.779   3.785   3.866   3.923
  3.932   3.957   3.972   3.993   4.018   4.052   4.070   4.087
  4.094   4.107   4.114   4.127   4.133   4.140   4.167   4.173
  4.181   4.184   4.200   4.217   4.222   4.224   4.244   4.258
  4.261   4.283   4.295   4.301   4.308   4.340   4.342   4.363
  4.371   4.377   4.393   4.408   4.413   4.446   4.463   4.486
  4.509   4.524   4.530   4.537   4.555   4.559   4.577   4.584
  4.597   4.609   4.621   4.624   4.638   4.640   4.658   4.661
  4.669   4.702   4.743   4.761   4.794   4.801   4.808   4.814
  4.823   4.870   4.890   4.893   4.910   4.928   4.942   4.970
  4.996   5.014   5.015   5.059   5.065   5.076   5.110   5.172
  5.176   5.186   5.196   5.226   5.254   5.265   5.271   5.316
  5.346   5.348   5.355   5.377   5.392   5.415   5.484   5.495
  5.512   5.548   5.598   5.604   5.615   5.630   5.673   5.683
  5.749   5.793   5.973   6.087   6.135   6.153   6.174   6.180
  6.193   6.212   6.242   6.271   6.729   6.739   6.806   6.830
  7.118   7.500   7.823   7.836   8.229   8.236   9.242  10.427
 15.343  17.724  20.473  20.487  20.864  52.545 107.020
 --------------------------------------------------------------
 
          Ground-State Mulliken Net Atomic Charges

     Atom                 Charge (a.u.)
  ----------------------------------------
      1 Si                    1.235484
      2 H                    -0.371569
      3 H                    -0.397071
      4 H                    -0.393068
      5 C                    -1.041487
      6 H                     0.318071
      7 H                     0.341968
      8 H                     0.306617
      9 GH                   -0.001527
     10 GH                    0.000322
     11 GH                    0.000303
     12 GH                    0.000324
     13 GH                    0.017449
     14 GH                    0.003587
     15 GH                    0.001489
     16 GH                   -0.020915
  ----------------------------------------
  Sum of atomic charges =    -0.000023

 -----------------------------------------------------------------
                    Cartesian Multipole Moments
 -----------------------------------------------------------------
    Charge (ESU x 10^10)
                -0.0001
    Dipole Moment (Debye)
         X      -0.6927      Y      -0.1485      Z       0.0081
       Tot       0.7085
    Quadrupole Moments (Debye-Ang)
        XX     -28.0103     XY      -0.5299     YY     -23.2862
        XZ       0.0207     YZ      -0.0003     ZZ     -23.2817
    Octopole Moments (Debye-Ang^2)
       XXX    -245.6530    XXY      -0.2880    XYY     -75.6390
       YYY      -1.5779    XXZ      -0.3334    XYZ       0.0522
       YYZ      -0.5226    XZZ     -76.7393    YZZ       1.9302
       ZZZ      -0.5476
    Hexadecapole Moments (Debye-Ang^3)
      XXXX   -1685.7125   XXXY      -3.6902   XXYY    -284.6089
      XYYY     -16.8452   YYYY     -61.8446   XXXZ      -2.8749
      XXYZ       0.3878   XYYZ      -1.4393   YYYZ       0.1520
      XXZZ    -290.5178   XYZZ       1.9305   YYZZ     -20.0793
      XZZZ      -1.2265   YZZZ       0.2077   ZZZZ     -57.1028
 -----------------------------------------------------------------
Archival summary:
1\1\mm2.localdomain\SP\MP2\BasisUnspecified\i116h8\xuedong\WedJul317:16:412019WedJul317:16:412019\0\\#,MP2,BasisUnspecified,\\0,1\Si\H,1,1.48088\H,1,1.48088,2,108.387\H,1,1.48091,2,108.383,3,-117.43,0\C,1,1.87817,2,110.546,3,121.3,0\H,5,1.08858,1,110.902,2,179.974,0\H,5,1.08863,1,110.862,2,60.0552,0\H,5,1.08878,1,110.8,2,-59.9955,0\Gh,7,2.30746,5,99.2438,1,175.757,0\Gh,9,1.08851,7,116.548,5,-92.5207,0\Gh,10,1.08869,9,107.974,7,70.3215,0\Gh,10,1.08875,9,108.084,7,-46.3515,0\Gh,10,1.87808,9,110.927,7,-168.039,0\Gh,13,1.48089,10,110.567,9,-179.937,0\Gh,13,1.48091,10,110.532,9,60.0505,0\Gh,13,1.48092,10,110.529,9,-59.9311,0\\HF=-330.323209\MP2=-330.647116\\@

 Total job time:  450.47s(wall), 2694.20s(cpu) 
 Wed Jul  3 17:16:41 2019

        *************************************************************
        *                                                           *
        *  Thank you very much for using Q-Chem.  Have a nice day.  *
        *                                                           *
        *************************************************************



Running Job 3 of 3 ../qm_inp/SiH3CH3_SiH3CH3_con3.080.qcinp
qchem ../qm_inp/SiH3CH3_SiH3CH3_con3.080.qcinp_34081.2 /scratch/xuedong/qchem34081/ 1
/home/qwang/software/qchem5.1.2/exe/qcprog.exe_s ../qm_inp/SiH3CH3_SiH3CH3_con3.080.qcinp_34081.2 /scratch/xuedong/qchem34081/
Check license passed

                  Welcome to Q-Chem
     A Quantum Leap Into The Future Of Chemistry


 Q-Chem 5.1, Q-Chem, Inc., Pleasanton, CA (2018)

 Yihan Shao,  Zhengting Gan,  E. Epifanovsky,  A. T. B. Gilbert,  M. Wormit,  
 J. Kussmann,  A. W. Lange,  A. Behn,  Jia Deng,  Xintian Feng,  D. Ghosh,  
 M. Goldey,  P. R. Horn,  L. D. Jacobson,  I. Kaliman,  T. Kus,  A. Landau,  
 Jie Liu,  E. I. Proynov,  R. M. Richard,  R. P. Steele,  E. J. Sundstrom,  
 H. L. Woodcock III,  P. M. Zimmerman,  D. Zuev,  B. Albrecht,  E. Alguire,  
 S. A. Baeppler,  D. Barton,  Z. Benda,  Y. A. Bernard,  E. J. Berquist,  
 K. B. Bravaya,  H. Burton,  D. Casanova,  Chun-Min Chang,  Yunqing Chen,  
 A. Chien,  K. D. Closser,  M. P. Coons,  S. Coriani,  S. Dasgupta,  
 A. L. Dempwolff,  M. Diedenhofen,  Hainam Do,  R. G. Edgar,  Po-Tung Fang,  
 S. Faraji,  S. Fatehi,  Qingguo Feng,  K. D. Fenk,  J. Fosso-Tande,  
 J. Gayvert,  Qinghui Ge,  A. Ghysels,  G. Gidofalvi,  J. Gomes,  
 J. Gonthier,  A. Gunina,  D. Hait,  M. W. D. Hanson-Heine,  
 P. H. P. Harbach,  A. W. Hauser,  J. E. Herr,  E. G. Hohenstein,  
 Z. C. Holden,  Kerwin Hui,  B. C. Huynh,  T.-C. Jagau,  Hyunjun Ji,  
 B. Kaduk,  K. Khistyaev,  Jaehoon Kim,  P. Klunzinger,  K. Koh,  
 D. Kosenkov,  L. Koulias,  T. Kowalczyk,  C. M. Krauter,  A. Kunitsa,  
 Ka Un Lao,  A. Laurent,  K. V. Lawler,  Joonho Lee,  D. Lefrancois,  
 S. Lehtola,  D. S. Levine,  Yi-Pei Li,  You-Sheng Lin,  Fenglai Liu,  
 E. Livshits,  A. Luenser,  P. Manohar,  E. Mansoor,  S. F. Manzer,  
 Shan-Ping Mao,  Yuezhi Mao,  N. Mardirossian,  A. V. Marenich,  
 T. Markovich,  L. A. Martinez-Martinez,  S. A. Maurer,  N. J. Mayhall,  
 S. C. McKenzie,  J.-M. Mewes,  A. F. Morrison,  J. W. Mullinax,  K. Nanda,  
 T. S. Nguyen-Beck,  R. Olivares-Amaya,  J. A. Parkhill,  T. M. Perrine,  
 F. Plasser,  P. Pokhilko,  S. Prager,  A. Prociuk,  E. Ramos,  D. R. Rehn,  
 F. Rob,  M. Schneider,  N. Sergueev,  S. M. Sharada,  S. Sharma,  
 D. W. Small,  T. Stauch,  T. Stein,  Yu-Chuan Su,  A. J. W. Thom,  
 A. Tkatchenko,  T. Tsuchimochi,  N. M. Tubman,  L. Vogt,  M. L. Vidal,  
 O. Vydrov,  M. A. Watson,  J. Wenzel,  M. de Wergifosse,  T. A. Wesolowski,  
 A. White,  J. Witte,  A. Yamada,  Jun Yang,  K. Yao,  S. Yeganeh,  
 S. R. Yost,  Zhi-Qiang You,  A. Zech,  Igor Ying Zhang,  Xing Zhang,  
 Yan Zhao,  Ying Zhu,  B. R. Brooks,  G. K. L. Chan,  C. J. Cramer,  
 M. S. Gordon,  W. J. Hehre,  A. Klamt,  M. W. Schmidt,  C. D. Sherrill,  
 D. G. Truhlar,  A. Aspuru-Guzik,  R. Baer,  A. T. Bell,  N. A. Besley,  
 Jeng-Da Chai,  A. E. DePrince, III,  R. A. DiStasio Jr.,  A. Dreuw,  
 B. D. Dunietz,  T. R. Furlani,  Chao-Ping Hsu,  Yousung Jung,  Jing Kong,  
 D. S. Lambrecht,  WanZhen Liang,  C. Ochsenfeld,  V. A. Rassolov,  
 L. V. Slipchenko,  J. E. Subotnik,  T. Van Voorhis,  J. M. Herbert,  
 A. I. Krylov,  P. M. W. Gill,  M. Head-Gordon

 Contributors to earlier versions of Q-Chem not listed above: 
 R. D. Adamson,  B. Austin,  J. Baker,  G. J. O. Beran,  K. Brandhorst,  
 S. T. Brown,  E. F. C. Byrd,  A. K. Chakraborty,  C.-L. Cheng,  
 Siu Hung Chien,  D. M. Chipman,  D. L. Crittenden,  H. Dachsel,  
 R. J. Doerksen,  A. D. Dutoi,  L. Fusti-Molnar,  W. A. Goddard III,  
 A. Golubeva-Zadorozhnaya,  S. R. Gwaltney,  G. Hawkins,  A. Heyden,  
 S. Hirata,  G. Kedziora,  F. J. Keil,  C. Kelley,  Jihan Kim,  R. A. King,  
 R. Z. Khaliullin,  P. P. Korambath,  W. Kurlancheek,  A. M. Lee,  M. S. Lee,  
 S. V. Levchenko,  Ching Yeh Lin,  D. Liotard,  R. C. Lochan,  I. Lotan,  
 P. E. Maslen,  N. Nair,  D. P. O'Neill,  D. Neuhauser,  E. Neuscamman,  
 C. M. Oana,  R. Olson,  B. Peters,  R. Peverati,  P. A. Pieniazek,  
 Y. M. Rhee,  J. Ritchie,  M. A. Rohrdanz,  E. Rosta,  N. J. Russ,  
 H. F. Schaefer III,  N. E. Schultz,  N. Shenvi,  A. C. Simmonett,  A. Sodt,  
 D. Stuck,  K. S. Thanthiriwatte,  V. Vanovschi,  Tao Wang,  A. Warshel,  
 C. F. Williams,  Q. Wu,  X. Xu,  W. Zhang

 Please cite Q-Chem as follows:
 Y. Shao et al., Mol. Phys. 113, 184-215 (2015)
 DOI: 10.1080/00268976.2014.952696

 Q-Chem 5.1.2 for Intel X86 EM64T Linux

 Parts of Q-Chem use Armadillo 8.300.2 (Tropical Shenanigans).
 http://arma.sourceforge.net/

 Q-Chem begins on Wed Jul  3 17:16:41 2019  

Host: 
0

     Scratch files written to /scratch/xuedong/qchem34081//
 Dec218 |scratch|qcdevops|jenkins|workspace|build_RNUM 6581   
Processing $rem in /home/qwang/software/qchem5.1.2/config/preferences.
 MEM_TOTAL  4000 
Core orbitals will be frozen
Input Ideriv = 1
Curr. Ideriv = -1
Max.  Ideriv = 1

Checking the input file for inconsistencies... 	...done.

--------------------------------------------------------------
User input:
--------------------------------------------------------------

$molecule
0 1
@Si    3.762272567     0.100944777     0.006072646
@H     3.981291986     1.564414477     0.064186564
@H     4.389924271    -0.416429655    -1.231422106
@H     4.439607953    -0.519141536     1.167849490
@C     1.925645521    -0.291305561     0.027271718
@H     1.759401550    -1.366486120    -0.015128601
@H     1.421772543     0.162315456    -0.824405717
@H     1.458679937     0.087942478     0.934592371
Si   -3.157928405    -0.123569979     0.011294645
H    -3.387621726    -1.402472616    -0.699187117
H    -3.961380846     0.929385781    -0.651115537
H    -3.638369711    -0.270566405     1.404375741
C    -1.334331319     0.324889361    -0.012699694
H    -1.159949573     1.264708631     0.508551404
H    -0.975666730     0.434107177    -1.034788968
H    -0.737963018    -0.446012151     0.471972569
$end

$rem
BASIS = aug-cc-pVTZ
JOB_TYPE  =  SP
METHOD  =  MP2
SCF_MAX_CYCLES  =  200
$end

--------------------------------------------------------------
 ----------------------------------------------------------------
             Standard Nuclear Orientation (Angstroms)
    I     Atom           X                Y                Z
 ----------------------------------------------------------------
    1      GH      3.7622725670     0.1009447770     0.0060726460
    2      GH      3.9812919860     1.5644144770     0.0641865640
    3      GH      4.3899242710    -0.4164296550    -1.2314221060
    4      GH      4.4396079530    -0.5191415360     1.1678494900
    5      GH      1.9256455210    -0.2913055610     0.0272717180
    6      GH      1.7594015500    -1.3664861200    -0.0151286010
    7      GH      1.4217725430     0.1623154560    -0.8244057170
    8      GH      1.4586799370     0.0879424780     0.9345923710
    9      Si     -3.1579284050    -0.1235699790     0.0112946450
   10      H      -3.3876217260    -1.4024726160    -0.6991871170
   11      H      -3.9613808460     0.9293857810    -0.6511155370
   12      H      -3.6383697110    -0.2705664050     1.4043757410
   13      C      -1.3343313190     0.3248893610    -0.0126996940
   14      H      -1.1599495730     1.2647086310     0.5085514040
   15      H      -0.9756667300     0.4341071770    -1.0347889680
   16      H      -0.7379630180    -0.4460121510     0.4719725690
 ----------------------------------------------------------------
 Nuclear Repulsion Energy =    62.8472945360 hartrees
 There are       13 alpha and       13 beta electrons
 Requested basis set is aug-cc-pVTZ
 There are 168 shells and 468 basis functions

 Total QAlloc Memory Limit   4000 MB
 Mega-Array Size       188 MB
 MEM_STATIC part       192 MB
 A cutoff of  1.0D-08 yielded  11584 shell pairs
 There are     86794 function pairs (    110181 Cartesian)
 
 -------------------------------------------------------
 OpenMP Integral Computing Module                       
 Release: version 1.0, May 2013, Q-Chem Inc. Pittsburgh 
 -------------------------------------------------------
 Integral Job Info:
 Integral job number is                      11
 Integral operator is                         1
 short-range coefficients                     0
 long-range coefficients              100000000
 Omega coefficients                           0
 if combine SR and LR in K                    0
 Integral screening is                        0
 Integral computing path is                   2
 max size of driver memory is            800000
 size of driver memory is                776718
 size of scratch memory is             29531563
 max col of scratch BK array              10000
 max len of scratch array in speh3          662
 max len of scratch index in speh4           32
 max int batch size is                      520
 min int batch size is                       52
 fixed nKL is                                31
 max L of basis functions is                  3
 order of int derivative is                   0
 number of shells is                        168
 number of basis is                         528
 number of cartesian basis is               528
 number of contracted shell pairs         11584
 number of primitive shell pairs          30678
 maxK2 (contraction) of shell pair          169
 max number of K2 of shell pair               1
 max number of CS2 of shell pair           2185
 max number of PS2 of shell pair           2886
 mem total for path MDJ                  787404
 -------------------------------------------------------
 Smallest overlap matrix eigenvalue = 9.99E-06

 Q-Chem warning in module stvman/mkSTV.C, line 306:

 Overlap eigenvalue is smaller than square root of threshold
 Use THRESH >= 12 to get rid of this warning


 Scale SEOQF with 1.000000e-01/1.000000e-01/1.000000e-01

 Standard Electronic Orientation quadrupole field applied
 Nucleus-field energy     =     0.0000000068 hartrees
 Guess from superposition of atomic densities
 Warning:  Energy on first SCF cycle will be non-variational
 SAD guess density has 26.000000 electrons

 -----------------------------------------------------------------------
  General SCF calculation program by
  Eric Jon Sundstrom, Paul Horn, Yuezhi Mao, Dmitri Zuev, Alec White,
  David Stuck, Shaama M.S., Shane Yost, Joonho Lee, David Small,
  Daniel Levine, Susi Lehtola, Hugh Burton, Evgeny Epifanovsky
 -----------------------------------------------------------------------
 Hartree-Fock
 using 6 threads for integral computing
 -------------------------------------------------------
 OpenMP Integral computing Module                
 Release: version 1.0, May 2013, Q-Chem Inc. Pittsburgh 
 -------------------------------------------------------
 A restricted SCF calculation will be
 performed using DIIS
 SCF converges when DIIS error is below 1.0e-05
 ---------------------------------------
  Cycle       Energy         DIIS error
 ---------------------------------------
    1    -330.4724865584      1.04e-02  
    2    -330.2950895944      7.86e-04  
    3    -330.3203532278      2.33e-04  
    4    -330.3228274491      9.50e-05  
    5    -330.3231942121      1.18e-05  
    6    -330.3232053735      2.49e-06  Convergence criterion met
 ---------------------------------------
 SCF time:   CPU 452.83s  wall 75.00s 
 SCF   energy in the final basis set =     -330.3232053735
 Total energy in the final basis set =     -330.3232053735
 
 Components of the MP2 correlation energy:
        aaaa  correlation energy =        -0.0278613710 au
        abab  correlation energy =        -0.2681729041 au
        bbbb  correlation energy =        -0.0278613710 au
        non-Brillouin singles    =        -0.0000000000 au

 Total  MP2   correlation energy =                    -0.32389565 au
        MP2         total energy =                  -330.64710102 au
 
 --------------------------------------------------------------
 
                    Orbital Energies (a.u.)
 --------------------------------------------------------------
 
 Alpha MOs
 -- Occupied --
-68.766 -11.208  -6.115  -4.221  -4.221  -4.220  -0.950  -0.699
 -0.565  -0.565  -0.469  -0.469  -0.455
 -- Virtual --
  0.019   0.034   0.037   0.038   0.044   0.053   0.055   0.063
  0.063   0.068   0.073   0.075   0.078   0.086   0.089   0.090
  0.104   0.106   0.114   0.123   0.129   0.130   0.143   0.147
  0.150   0.158   0.160   0.165   0.168   0.183   0.190   0.196
  0.198   0.203   0.209   0.211   0.217   0.223   0.239   0.242
  0.245   0.252   0.259   0.263   0.276   0.282   0.292   0.294
  0.296   0.301   0.305   0.308   0.314   0.320   0.323   0.329
  0.336   0.339   0.343   0.345   0.351   0.360   0.364   0.370
  0.371   0.386   0.393   0.401   0.416   0.419   0.427   0.430
  0.432   0.435   0.440   0.445   0.446   0.456   0.460   0.466
  0.471   0.476   0.485   0.490   0.497   0.501   0.508   0.511
  0.521   0.529   0.537   0.540   0.547   0.554   0.561   0.566
  0.575   0.587   0.600   0.610   0.620   0.630   0.637   0.642
  0.653   0.653   0.659   0.664   0.675   0.681   0.688   0.694
  0.698   0.704   0.710   0.724   0.726   0.743   0.754   0.757
  0.785   0.790   0.796   0.810   0.812   0.823   0.837   0.841
  0.844   0.853   0.869   0.877   0.882   0.898   0.909   0.918
  0.923   0.930   0.937   0.942   0.959   0.964   0.976   0.978
  0.998   1.001   1.009   1.022   1.025   1.037   1.042   1.047
  1.054   1.062   1.067   1.071   1.083   1.088   1.093   1.098
  1.108   1.114   1.124   1.131   1.143   1.145   1.155   1.158
  1.164   1.172   1.173   1.175   1.185   1.187   1.192   1.203
  1.205   1.210   1.219   1.228   1.234   1.242   1.246   1.257
  1.264   1.268   1.280   1.293   1.301   1.314   1.320   1.328
  1.334   1.345   1.347   1.367   1.372   1.380   1.386   1.388
  1.394   1.399   1.407   1.421   1.423   1.432   1.439   1.447
  1.462   1.467   1.471   1.480   1.488   1.490   1.506   1.509
  1.527   1.544   1.553   1.564   1.586   1.605   1.606   1.615
  1.624   1.638   1.647   1.653   1.674   1.683   1.690   1.697
  1.709   1.715   1.723   1.744   1.769   1.782   1.798   1.799
  1.814   1.829   1.847   1.863   1.876   1.885   1.888   1.923
  1.926   1.948   1.953   1.971   1.975   1.985   2.002   2.020
  2.032   2.044   2.067   2.069   2.086   2.089   2.099   2.108
  2.121   2.146   2.158   2.175   2.190   2.191   2.198   2.213
  2.221   2.244   2.276   2.290   2.301   2.324   2.342   2.356
  2.382   2.405   2.449   2.455   2.470   2.482   2.501   2.520
  2.524   2.586   2.607   2.632   2.714   2.730   2.779   2.816
  2.822   2.889   3.007   3.018   3.116   3.120   3.208   3.253
  3.365   3.444   3.463   3.477   3.607   3.621   3.639   3.692
  3.702   3.723   3.727   3.733   3.775   3.792   3.869   3.940
  3.951   3.961   3.975   3.993   4.016   4.037   4.069   4.075
  4.095   4.106   4.121   4.130   4.136   4.138   4.150   4.165
  4.185   4.199   4.203   4.213   4.222   4.228   4.244   4.252
  4.266   4.286   4.301   4.306   4.320   4.339   4.343   4.356
  4.369   4.378   4.391   4.411   4.431   4.453   4.461   4.467
  4.503   4.522   4.534   4.546   4.549   4.556   4.574   4.584
  4.594   4.598   4.617   4.623   4.632   4.638   4.656   4.662
  4.671   4.681   4.741   4.757   4.793   4.794   4.806   4.818
  4.829   4.869   4.889   4.900   4.914   4.930   4.931   4.976
  5.000   5.020   5.046   5.057   5.066   5.075   5.116   5.172
  5.176   5.180   5.193   5.237   5.257   5.270   5.273   5.324
  5.336   5.346   5.352   5.358   5.416   5.438   5.484   5.486
  5.512   5.532   5.596   5.619   5.633   5.640   5.674   5.683
  5.738   5.796   5.974   6.095   6.143   6.149   6.172   6.175
  6.180   6.209   6.226   6.273   6.731   6.740   6.802   6.825
  7.130   7.512   7.825   7.831   8.215   8.249   9.213  10.450
 15.384  17.641  20.469  20.493  20.883  52.686 107.023
 --------------------------------------------------------------
 
          Ground-State Mulliken Net Atomic Charges

     Atom                 Charge (a.u.)
  ----------------------------------------
      1 GH                   -0.002651
      2 GH                    0.000291
      3 GH                    0.000301
      4 GH                    0.000274
      5 GH                    0.004890
      6 GH                    0.004471
      7 GH                   -0.002096
      8 GH                    0.002672
      9 Si                    1.257916
     10 H                    -0.374836
     11 H                    -0.394947
     12 H                    -0.388803
     13 C                    -1.026414
     14 H                     0.312330
     15 H                     0.297675
     16 H                     0.308905
  ----------------------------------------
  Sum of atomic charges =    -0.000023

 -----------------------------------------------------------------
                    Cartesian Multipole Moments
 -----------------------------------------------------------------
    Charge (ESU x 10^10)
                -0.0001
    Dipole Moment (Debye)
         X       0.6884      Y       0.1706      Z      -0.0100
       Tot       0.7093
    Quadrupole Moments (Debye-Ang)
        XX     -27.1512     XY      -0.5092     YY     -23.2923
        XZ       0.0324     YZ       0.0029     ZZ     -23.2812
    Octopole Moments (Debye-Ang^2)
       XXX     195.9721    XXY      -0.2011    XYY      61.9869
       YYY       0.2006    XXZ      -0.0125    XYZ      -0.4292
       YYZ       1.7164    XZZ      62.3007    YZZ       0.2388
       ZZZ      -2.2834
    Hexadecapole Moments (Debye-Ang^3)
      XXXX   -1155.1321   XXXY      -5.1317   XXYY    -203.7316
      XYYY     -14.2053   YYYY     -63.7949   XXXZ       0.4118
      XXYZ       2.1482   XYYZ      -3.9877   YYYZ       0.4504
      XXZZ    -204.2304   XYZZ      -5.1551   YYZZ     -20.1297
      XZZZ       6.4142   YZZZ       0.0894   ZZZZ     -57.1196
 -----------------------------------------------------------------
Archival summary:
1\1\mm2.localdomain\SP\MP2\BasisUnspecified\i116h8\xuedong\WedJul317:24:112019WedJul317:24:112019\0\\#,MP2,BasisUnspecified,\\0,1\Si\H,1,1.48089\H,1,1.48091,2,108.381\H,1,1.48092,2,108.378,3,117.417,0\C,1,1.87808,2,110.567,3,-121.294,0\H,5,1.08851,1,110.927,2,-179.937,0\H,5,1.08869,1,110.845,2,-59.996,0\H,5,1.08875,1,110.826,2,59.9946,0\Gh,6,2.30746,5,116.548,1,-168.039,0\Gh,9,1.08863,6,99.2438,5,-92.5207,0\Gh,10,1.08858,9,107.96,6,54.0965,0\Gh,10,1.08878,9,108.118,6,-62.6049,0\Gh,10,1.87817,9,110.862,6,175.757,0\Gh,13,1.48088,10,110.546,9,60.0552,0\Gh,13,1.48088,10,110.544,9,-179.931,0\Gh,13,1.48091,10,110.522,9,-59.9389,0\\HF=-330.323205\MP2=-330.647101\\@

 Total job time:  450.03s(wall), 2691.71s(cpu) 
 Wed Jul  3 17:24:12 2019

        *************************************************************
        *                                                           *
        *  Thank you very much for using Q-Chem.  Have a nice day.  *
        *                                                           *
        *************************************************************


