
Running Job 1 of 1 ../qm_inp/SiH3CH3_SiH3CH3_con2.090.qcinp
qchem ../qm_inp/SiH3CH3_SiH3CH3_con2.090.qcinp_26469.0 /scratch/xuedong/qchem26469/ 1
/home/qwang/software/qchem5.1.2/exe/qcprog.exe_s ../qm_inp/SiH3CH3_SiH3CH3_con2.090.qcinp_26469.0 /scratch/xuedong/qchem26469/
Check license passed

                  Welcome to Q-Chem
     A Quantum Leap Into The Future Of Chemistry


 Q-Chem 5.1, Q-Chem, Inc., Pleasanton, CA (2018)

 Yihan Shao,  Zhengting Gan,  E. Epifanovsky,  A. T. B. Gilbert,  M. Wormit,  
 J. Kussmann,  A. W. Lange,  A. Behn,  Jia Deng,  Xintian Feng,  D. Ghosh,  
 M. Goldey,  P. R. Horn,  L. D. Jacobson,  I. Kaliman,  T. Kus,  A. Landau,  
 Jie Liu,  E. I. Proynov,  R. M. Richard,  R. P. Steele,  E. J. Sundstrom,  
 H. L. Woodcock III,  P. M. Zimmerman,  D. Zuev,  B. Albrecht,  E. Alguire,  
 S. A. Baeppler,  D. Barton,  Z. Benda,  Y. A. Bernard,  E. J. Berquist,  
 K. B. Bravaya,  H. Burton,  D. Casanova,  Chun-Min Chang,  Yunqing Chen,  
 A. Chien,  K. D. Closser,  M. P. Coons,  S. Coriani,  S. Dasgupta,  
 A. L. Dempwolff,  M. Diedenhofen,  Hainam Do,  R. G. Edgar,  Po-Tung Fang,  
 S. Faraji,  S. Fatehi,  Qingguo Feng,  K. D. Fenk,  J. Fosso-Tande,  
 J. Gayvert,  Qinghui Ge,  A. Ghysels,  G. Gidofalvi,  J. Gomes,  
 J. Gonthier,  A. Gunina,  D. Hait,  M. W. D. Hanson-Heine,  
 P. H. P. Harbach,  A. W. Hauser,  J. E. Herr,  E. G. Hohenstein,  
 Z. C. Holden,  Kerwin Hui,  B. C. Huynh,  T.-C. Jagau,  Hyunjun Ji,  
 B. Kaduk,  K. Khistyaev,  Jaehoon Kim,  P. Klunzinger,  K. Koh,  
 D. Kosenkov,  L. Koulias,  T. Kowalczyk,  C. M. Krauter,  A. Kunitsa,  
 Ka Un Lao,  A. Laurent,  K. V. Lawler,  Joonho Lee,  D. Lefrancois,  
 S. Lehtola,  D. S. Levine,  Yi-Pei Li,  You-Sheng Lin,  Fenglai Liu,  
 E. Livshits,  A. Luenser,  P. Manohar,  E. Mansoor,  S. F. Manzer,  
 Shan-Ping Mao,  Yuezhi Mao,  N. Mardirossian,  A. V. Marenich,  
 T. Markovich,  L. A. Martinez-Martinez,  S. A. Maurer,  N. J. Mayhall,  
 S. C. McKenzie,  J.-M. Mewes,  A. F. Morrison,  J. W. Mullinax,  K. Nanda,  
 T. S. Nguyen-Beck,  R. Olivares-Amaya,  J. A. Parkhill,  T. M. Perrine,  
 F. Plasser,  P. Pokhilko,  S. Prager,  A. Prociuk,  E. Ramos,  D. R. Rehn,  
 F. Rob,  M. Schneider,  N. Sergueev,  S. M. Sharada,  S. Sharma,  
 D. W. Small,  T. Stauch,  T. Stein,  Yu-Chuan Su,  A. J. W. Thom,  
 A. Tkatchenko,  T. Tsuchimochi,  N. M. Tubman,  L. Vogt,  M. L. Vidal,  
 O. Vydrov,  M. A. Watson,  J. Wenzel,  M. de Wergifosse,  T. A. Wesolowski,  
 A. White,  J. Witte,  A. Yamada,  Jun Yang,  K. Yao,  S. Yeganeh,  
 S. R. Yost,  Zhi-Qiang You,  A. Zech,  Igor Ying Zhang,  Xing Zhang,  
 Yan Zhao,  Ying Zhu,  B. R. Brooks,  G. K. L. Chan,  C. J. Cramer,  
 M. S. Gordon,  W. J. Hehre,  A. Klamt,  M. W. Schmidt,  C. D. Sherrill,  
 D. G. Truhlar,  A. Aspuru-Guzik,  R. Baer,  A. T. Bell,  N. A. Besley,  
 Jeng-Da Chai,  A. E. DePrince, III,  R. A. DiStasio Jr.,  A. Dreuw,  
 B. D. Dunietz,  T. R. Furlani,  Chao-Ping Hsu,  Yousung Jung,  Jing Kong,  
 D. S. Lambrecht,  WanZhen Liang,  C. Ochsenfeld,  V. A. Rassolov,  
 L. V. Slipchenko,  J. E. Subotnik,  T. Van Voorhis,  J. M. Herbert,  
 A. I. Krylov,  P. M. W. Gill,  M. Head-Gordon

 Contributors to earlier versions of Q-Chem not listed above: 
 R. D. Adamson,  B. Austin,  J. Baker,  G. J. O. Beran,  K. Brandhorst,  
 S. T. Brown,  E. F. C. Byrd,  A. K. Chakraborty,  C.-L. Cheng,  
 Siu Hung Chien,  D. M. Chipman,  D. L. Crittenden,  H. Dachsel,  
 R. J. Doerksen,  A. D. Dutoi,  L. Fusti-Molnar,  W. A. Goddard III,  
 A. Golubeva-Zadorozhnaya,  S. R. Gwaltney,  G. Hawkins,  A. Heyden,  
 S. Hirata,  G. Kedziora,  F. J. Keil,  C. Kelley,  Jihan Kim,  R. A. King,  
 R. Z. Khaliullin,  P. P. Korambath,  W. Kurlancheek,  A. M. Lee,  M. S. Lee,  
 S. V. Levchenko,  Ching Yeh Lin,  D. Liotard,  R. C. Lochan,  I. Lotan,  
 P. E. Maslen,  N. Nair,  D. P. O'Neill,  D. Neuhauser,  E. Neuscamman,  
 C. M. Oana,  R. Olson,  B. Peters,  R. Peverati,  P. A. Pieniazek,  
 Y. M. Rhee,  J. Ritchie,  M. A. Rohrdanz,  E. Rosta,  N. J. Russ,  
 H. F. Schaefer III,  N. E. Schultz,  N. Shenvi,  A. C. Simmonett,  A. Sodt,  
 D. Stuck,  K. S. Thanthiriwatte,  V. Vanovschi,  Tao Wang,  A. Warshel,  
 C. F. Williams,  Q. Wu,  X. Xu,  W. Zhang

 Please cite Q-Chem as follows:
 Y. Shao et al., Mol. Phys. 113, 184-215 (2015)
 DOI: 10.1080/00268976.2014.952696

 Q-Chem 5.1.2 for Intel X86 EM64T Linux

 Parts of Q-Chem use Armadillo 8.300.2 (Tropical Shenanigans).
 http://arma.sourceforge.net/

 Q-Chem begins on Tue Jul  2 18:06:58 2019  

Host: 
0

     Scratch files written to /scratch/xuedong/qchem26469//
 Dec218 |scratch|qcdevops|jenkins|workspace|build_RNUM 6581   
Processing $rem in /home/qwang/software/qchem5.1.2/config/preferences.
 MEM_TOTAL  4000 
Core orbitals will be frozen
Input Ideriv = 1
Curr. Ideriv = -1
Max.  Ideriv = 1

Checking the input file for inconsistencies... 	...done.

--------------------------------------------------------------
User input:
--------------------------------------------------------------
$molecule
0 1
--
0 1
Si     2.014998435     0.321073490    -0.133289128
H     1.503542539     1.072357510     1.035552051
H     1.215154919    -0.917779499    -0.277040965
H     1.816801357     1.147049434    -1.346132733
C     3.832693717    -0.093902041     0.092465048
H     4.212738567    -0.647371106    -0.764407842
H     3.983063110    -0.702802282     0.982191073
H     4.425687573     0.812791426     0.199197617
--
0 1
Si    -1.622846499    -0.276833478    -0.014846304
H    -1.393077198    -1.446468778    -0.893169565
H    -1.100431068    -0.592357965     1.334153660
H    -0.856514496     0.870573702    -0.554861665
C    -3.452993872     0.137263265     0.066221609
H    -3.627115853     0.998938546     0.708224023
H    -4.021743272    -0.701324627     0.464250995
H    -3.841339993     0.369248899    -0.923933562
$end

$rem
BASIS = aug-cc-pVTZ
JOB_TYPE  =  BSSE
METHOD  =  MP2
SCF_CONVERGENCE  =  8
SCF_MAX_CYCLES  =  200
$end

--------------------------------------------------------------
 ----------------------------------------------------------------
             Standard Nuclear Orientation (Angstroms)
    I     Atom           X                Y                Z
 ----------------------------------------------------------------
    1      Si     -1.8300546980     0.2584480370     0.0461886641
    2      H      -1.3323185454     0.7777484573    -1.2479482335
    3      H      -0.9943971636    -0.9015757825     0.4350230666
    4      H      -1.6663529656     1.3149263685     1.0706705965
    5      C      -3.6325943320    -0.2494482394    -0.0955082581
    6      H      -4.0024972921    -0.6329541457     0.8537484319
    7      H      -3.7575663349    -1.0275357214    -0.8464707913
    8      H      -4.2517841706     0.5990122365    -0.3815945427
    9      Si      1.8249714220    -0.2376756135     0.0552767899
   10      H       1.6236692495    -1.2157918460     1.1484640970
   11      H       1.3228953363    -0.8313184054    -1.2047955601
   12      H       1.0202025821     0.9698288404     0.3547841749
   13      C       3.6423896487     0.2087152573    -0.1035114518
   14      H       3.7954977282     0.9304553370    -0.9038982502
   15      H       4.2392529082    -0.6741930820    -0.3256826441
   16      H       4.0157926312     0.6449817079     0.8213015582
 ----------------------------------------------------------------
 Molecular Point Group                 C1    NOp =  1
 Largest Abelian Subgroup              C1    NOp =  1
 Nuclear Repulsion Energy =   203.1220204104 hartrees
 There are       26 alpha and       26 beta electrons
 Requested basis set is aug-cc-pVTZ
 There are 168 shells and 468 basis functions

 Total QAlloc Memory Limit   4000 MB
 Mega-Array Size       188 MB
 MEM_STATIC part       192 MB
 A cutoff of  1.0D-11 yielded  12486 shell pairs
 There are     94746 function pairs (    120343 Cartesian)
 
 -------------------------------------------------------
 OpenMP Integral Computing Module                       
 Release: version 1.0, May 2013, Q-Chem Inc. Pittsburgh 
 -------------------------------------------------------
 Integral Job Info:
 Integral job number is                      11
 Integral operator is                         1
 short-range coefficients                     0
 long-range coefficients              100000000
 Omega coefficients                           0
 if combine SR and LR in K                    0
 Integral screening is                        0
 Integral computing path is                   2
 max size of driver memory is            800000
 size of driver memory is                776718
 size of scratch memory is             29531563
 max col of scratch BK array              10000
 max len of scratch array in speh3          662
 max len of scratch index in speh4           32
 max int batch size is                      520
 min int batch size is                       52
 fixed nKL is                                31
 max L of basis functions is                  3
 order of int derivative is                   0
 number of shells is                        168
 number of basis is                         528
 number of cartesian basis is               528
 number of contracted shell pairs         12486
 number of primitive shell pairs          34447
 maxK2 (contraction) of shell pair          169
 max number of K2 of shell pair               1
 max number of CS2 of shell pair           2319
 max number of PS2 of shell pair           3432
 mem total for path MDJ                  814444
 -------------------------------------------------------
 Smallest overlap matrix eigenvalue = 9.69E-06

 Scale SEOQF with 1.000000e-01/1.000000e-01/1.000000e-01

 Standard Electronic Orientation quadrupole field applied
 Nucleus-field energy     =     0.0000000127 hartrees
 Guess MOs from converged MOs on fragments

-----------------------------------------------------------------
 SCF on fragment 1 out of 2
/home/qwang/software/qchem5.1.2/exe/qcprog.exe /scratch/xuedong/qchem26469/Frg1.input /scratch/xuedong/qchem26469/Frg1/ > /dev/null 
 SCF on fragment 2 out of 2
/home/qwang/software/qchem5.1.2/exe/qcprog.exe /scratch/xuedong/qchem26469/Frg2.input /scratch/xuedong/qchem26469/Frg2/ > /dev/null 
-----------------------------------------------------------------
 Done with SCF on isolated fragments
-----------------------------------------------------------------

 User-specified occupied guess orbitals will be used
 A restricted Hartree-Fock SCF calculation will be
 performed using Pulay DIIS extrapolation
 SCF converges when DIIS error is below 1.0E-08
 using 6 threads for integral computing
 -------------------------------------------------------
 OpenMP Integral computing Module                
 Release: version 1.0, May 2013, Q-Chem Inc. Pittsburgh 
 -------------------------------------------------------
 ---------------------------------------
  Cycle       Energy         DIIS Error
 ---------------------------------------
    1    -660.6405516050      1.75E-04
    2    -660.6421166462      3.27E-05
    3    -660.6422056465      6.51E-06
    4    -660.6422092203      1.92E-06
    5    -660.6422094500      5.91E-07
    6    -660.6422094788      1.66E-07
    7    -660.6422094813      3.60E-08
    8    -660.6422094814      1.07E-08
    9    -660.6422094814      8.56E-09 Convergence criterion met
 ---------------------------------------
 SCF time:  CPU 1239.01 s  wall 206.47 s

-----------------------------------------------------------------
 SCF CP correction for fragment 1 out of 2
/home/qwang/software/qchem5.1.2/exe/qcprog.exe /scratch/xuedong/qchem26469/Frg1.input /scratch/xuedong/qchem26469/Frg1BSSE/ > /dev/null 
 SCF CP correction for fragment 2 out of 2
/home/qwang/software/qchem5.1.2/exe/qcprog.exe /scratch/xuedong/qchem26469/Frg2.input /scratch/xuedong/qchem26469/Frg2BSSE/ > /dev/null 
-----------------------------------------------------------------
 Done with counterpoise correction on fragments
-----------------------------------------------------------------

 SCF   energy in the final basis set = -660.64220948
 Total energy in the final basis set = -660.64220948
 
 Components of the MP2 correlation energy:
        aaaa  correlation energy =        -0.0569257118 au
        abab  correlation energy =        -0.5391005017 au
        bbbb  correlation energy =        -0.0569257118 au
        non-Brillouin singles    =        -0.0000000000 au

 Total  MP2   correlation energy =                    -0.65295193 au
        MP2         total energy =                  -661.29516141 au
 
 --------------------------------------------------------------
 
                    Orbital Energies (a.u.)
 --------------------------------------------------------------
 
 Alpha MOs
 -- Occupied --
-68.763 -68.763 -11.206 -11.205  -6.112  -6.112  -4.218  -4.218
 -4.218  -4.218  -4.218  -4.218  -0.947  -0.947  -0.712  -0.684
 -0.563  -0.563  -0.562  -0.562  -0.476  -0.473  -0.472  -0.460
 -0.452  -0.439
 -- Virtual --
  0.028   0.032   0.042   0.043   0.049   0.051   0.051   0.066
  0.068   0.071   0.075   0.079   0.092   0.094   0.103   0.108
  0.109   0.121   0.129   0.131   0.138   0.144   0.146   0.149
  0.150   0.157   0.159   0.164   0.172   0.179   0.182   0.184
  0.199   0.206   0.214   0.215   0.218   0.231   0.235   0.251
  0.253   0.258   0.265   0.266   0.274   0.297   0.301   0.308
  0.313   0.316   0.317   0.322   0.330   0.330   0.341   0.343
  0.345   0.351   0.355   0.358   0.363   0.366   0.369   0.370
  0.372   0.377   0.383   0.385   0.392   0.395   0.399   0.406
  0.424   0.427   0.431   0.435   0.441   0.445   0.448   0.455
  0.463   0.465   0.466   0.477   0.481   0.487   0.492   0.500
  0.506   0.512   0.517   0.523   0.533   0.539   0.562   0.566
  0.582   0.588   0.612   0.613   0.625   0.632   0.632   0.646
  0.652   0.667   0.667   0.674   0.679   0.680   0.685   0.690
  0.692   0.697   0.699   0.708   0.713   0.717   0.718   0.726
  0.745   0.755   0.760   0.775   0.779   0.782   0.811   0.832
  0.840   0.841   0.851   0.866   0.878   0.884   0.902   0.904
  0.907   0.910   0.912   0.921   0.936   0.949   0.952   0.958
  0.960   0.969   0.972   0.980   1.002   1.005   1.019   1.024
  1.030   1.046   1.050   1.053   1.058   1.060   1.066   1.095
  1.101   1.116   1.124   1.124   1.133   1.138   1.140   1.155
  1.156   1.158   1.161   1.168   1.177   1.179   1.192   1.195
  1.200   1.213   1.218   1.220   1.229   1.230   1.236   1.246
  1.254   1.258   1.273   1.276   1.282   1.287   1.296   1.300
  1.308   1.316   1.318   1.324   1.331   1.360   1.367   1.377
  1.387   1.395   1.400   1.416   1.425   1.427   1.430   1.431
  1.434   1.448   1.450   1.461   1.464   1.467   1.478   1.484
  1.502   1.504   1.526   1.551   1.553   1.563   1.565   1.571
  1.580   1.599   1.606   1.626   1.627   1.639   1.644   1.664
  1.669   1.671   1.680   1.681   1.699   1.702   1.716   1.743
  1.755   1.768   1.771   1.779   1.797   1.833   1.857   1.859
  1.874   1.884   1.891   1.903   1.922   1.925   1.931   1.940
  1.991   1.996   2.015   2.016   2.027   2.037   2.041   2.048
  2.054   2.067   2.068   2.072   2.124   2.143   2.150   2.157
  2.162   2.179   2.182   2.202   2.205   2.211   2.243   2.247
  2.265   2.279   2.293   2.293   2.320   2.328   2.363   2.368
  2.385   2.397   2.411   2.415   2.754   2.760   3.104   3.106
  3.142   3.166   3.220   3.221   3.379   3.397   3.420   3.421
  3.423   3.431   3.512   3.562   3.569   3.574   3.578   3.616
  3.617   3.630   3.647   3.663   3.668   3.669   3.672   3.675
  3.757   3.784   3.818   3.836   3.842   3.843   3.849   3.868
  3.947   3.952   3.955   3.956   4.022   4.046   4.058   4.074
  4.088   4.091   4.110   4.114   4.116   4.118   4.123   4.129
  4.132   4.133   4.155   4.159   4.177   4.183   4.187   4.203
  4.207   4.214   4.220   4.223   4.232   4.236   4.243   4.259
  4.279   4.293   4.317   4.342   4.350   4.355   4.360   4.375
  4.411   4.416   4.445   4.456   4.518   4.521   4.523   4.530
  4.551   4.553   4.581   4.591   4.603   4.623   4.625   4.638
  4.642   4.684   4.765   4.769   4.784   4.789   4.799   4.816
  4.825   4.836   4.863   4.868   4.874   4.891   4.918   4.926
  4.979   5.010   5.012   5.012   5.040   5.041   5.055   5.092
  5.136   5.150   5.169   5.174   5.178   5.181   5.252   5.252
  5.273   5.281   5.359   5.363   5.568   5.569   5.604   5.606
  5.607   5.609   5.625   5.634   5.954   5.961   6.106   6.112
  6.113   6.116   6.701   6.703   6.704   6.712   9.152   9.413
 17.063  17.112
 --------------------------------------------------------------
 
          Ground-State Mulliken Net Atomic Charges

     Atom                 Charge (a.u.)
  ----------------------------------------
      1 Si                    1.571819
      2 H                    -0.362804
      3 H                    -0.316325
      4 H                    -0.384920
      5 C                    -1.301992
      6 H                     0.264202
      7 H                     0.280600
      8 H                     0.249149
      9 Si                    1.582502
     10 H                    -0.382991
     11 H                    -0.359881
     12 H                    -0.318625
     13 C                    -1.310499
     14 H                     0.277866
     15 H                     0.248549
     16 H                     0.263348
  ----------------------------------------
  Sum of atomic charges =     0.000000

 -----------------------------------------------------------------
                    Cartesian Multipole Moments
 -----------------------------------------------------------------
    Charge (ESU x 10^10)
                 0.0000
    Dipole Moment (Debye)
         X      -0.0030      Y      -0.0251      Z      -0.1047
       Tot       0.1077
    Quadrupole Moments (Debye-Ang)
        XX     -41.4014     XY       0.4932     YY     -46.5706
        XZ      -0.0085     YZ      -0.0042     ZZ     -46.4978
    Octopole Moments (Debye-Ang^2)
       XXX      -0.1900    XXY       0.0346    XYY       0.1855
       YYY      -0.5186    XXZ       0.0668    XYZ       1.1846
       YYZ      -2.5063    XZZ      -0.0273    YZZ       0.1287
       ZZZ       0.8278
    Hexadecapole Moments (Debye-Ang^3)
      XXXX   -1913.3138   XXXY     -16.5696   XXYY    -326.9057
      XYYY       2.8538   YYYY    -132.0888   XXXZ       0.6008
      XXYZ      -0.4167   XYYZ       0.6417   YYYZ      -0.0537
      XXZZ    -325.8403   XYZZ      11.0315   YYZZ     -41.7769
      XZZZ      -0.9804   YZZZ       0.0259   ZZZZ    -115.5150
 -----------------------------------------------------------------

 ---------------------------------------------------------------------
 *                     Fragment's binding energy                     *
 ---------------------------------------------------------------------
    Fragment           E(TOTAL)         E(CP-CORR)           DE(BSSE)
 ---------------------------------------------------------------------
           1    -330.6467391619    -330.6472331220       0.0004939601
           2    -330.6467390158    -330.6472366490       0.0004976332
     Complex    -661.2951614067
 ---------------------------------------------------------------------
  DE, kJ/mol      -4.4193701915      -1.8159109975
 ---------------------------------------------------------------------

Archival summary:
1\1\mm2.localdomain\SP\MP2\BasisUnspecified\i2212\xuedong\TueJul218:43:392019TueJul218:43:392019\0\\#,MP2,BasisUnspecified,\\0,1\Si\H,1,1.48063\H,1,1.48064,2,108.504\H,1,1.4817,2,108.336,3,-117.462,0\C,1,1.87816,2,110.577,3,121.399,0\H,5,1.08856,1,110.845,2,60.0131,0\H,5,1.08859,1,110.815,2,-179.959,0\H,5,1.08864,1,110.795,2,-59.9914,0\H,3,2.73167,1,82.038,2,-60.8695,0\Si,9,1.48161,3,134.36,1,-40.6197,0\H,10,1.48061,9,108.324,3,66.2475,0\H,10,1.48071,9,108.342,3,-51.2673,0\C,10,1.87808,9,110.451,3,-172.505,0\H,13,1.08857,10,110.826,9,-59.9862,0\H,13,1.08857,10,110.831,9,60.0438,0\H,13,1.08864,10,110.791,9,-179.971,0\\HF=-660.642209\MP2=-661.295161\\@

 Total job time:  2200.98s(wall), 4828.47s(cpu) 
 Tue Jul  2 18:43:39 2019

        *************************************************************
        *                                                           *
        *  Thank you very much for using Q-Chem.  Have a nice day.  *
        *                                                           *
        *************************************************************


