
Running Job 1 of 3 ../qm_inp/SiH3CH3_SiH3CH3_con3.095.qcinp
qchem ../qm_inp/SiH3CH3_SiH3CH3_con3.095.qcinp_34400.0 /scratch/xuedong/qchem34400/ 1
/home/qwang/software/qchem5.1.2/exe/qcprog.exe_s ../qm_inp/SiH3CH3_SiH3CH3_con3.095.qcinp_34400.0 /scratch/xuedong/qchem34400/
Check license passed

                  Welcome to Q-Chem
     A Quantum Leap Into The Future Of Chemistry


 Q-Chem 5.1, Q-Chem, Inc., Pleasanton, CA (2018)

 Yihan Shao,  Zhengting Gan,  E. Epifanovsky,  A. T. B. Gilbert,  M. Wormit,  
 J. Kussmann,  A. W. Lange,  A. Behn,  Jia Deng,  Xintian Feng,  D. Ghosh,  
 M. Goldey,  P. R. Horn,  L. D. Jacobson,  I. Kaliman,  T. Kus,  A. Landau,  
 Jie Liu,  E. I. Proynov,  R. M. Richard,  R. P. Steele,  E. J. Sundstrom,  
 H. L. Woodcock III,  P. M. Zimmerman,  D. Zuev,  B. Albrecht,  E. Alguire,  
 S. A. Baeppler,  D. Barton,  Z. Benda,  Y. A. Bernard,  E. J. Berquist,  
 K. B. Bravaya,  H. Burton,  D. Casanova,  Chun-Min Chang,  Yunqing Chen,  
 A. Chien,  K. D. Closser,  M. P. Coons,  S. Coriani,  S. Dasgupta,  
 A. L. Dempwolff,  M. Diedenhofen,  Hainam Do,  R. G. Edgar,  Po-Tung Fang,  
 S. Faraji,  S. Fatehi,  Qingguo Feng,  K. D. Fenk,  J. Fosso-Tande,  
 J. Gayvert,  Qinghui Ge,  A. Ghysels,  G. Gidofalvi,  J. Gomes,  
 J. Gonthier,  A. Gunina,  D. Hait,  M. W. D. Hanson-Heine,  
 P. H. P. Harbach,  A. W. Hauser,  J. E. Herr,  E. G. Hohenstein,  
 Z. C. Holden,  Kerwin Hui,  B. C. Huynh,  T.-C. Jagau,  Hyunjun Ji,  
 B. Kaduk,  K. Khistyaev,  Jaehoon Kim,  P. Klunzinger,  K. Koh,  
 D. Kosenkov,  L. Koulias,  T. Kowalczyk,  C. M. Krauter,  A. Kunitsa,  
 Ka Un Lao,  A. Laurent,  K. V. Lawler,  Joonho Lee,  D. Lefrancois,  
 S. Lehtola,  D. S. Levine,  Yi-Pei Li,  You-Sheng Lin,  Fenglai Liu,  
 E. Livshits,  A. Luenser,  P. Manohar,  E. Mansoor,  S. F. Manzer,  
 Shan-Ping Mao,  Yuezhi Mao,  N. Mardirossian,  A. V. Marenich,  
 T. Markovich,  L. A. Martinez-Martinez,  S. A. Maurer,  N. J. Mayhall,  
 S. C. McKenzie,  J.-M. Mewes,  A. F. Morrison,  J. W. Mullinax,  K. Nanda,  
 T. S. Nguyen-Beck,  R. Olivares-Amaya,  J. A. Parkhill,  T. M. Perrine,  
 F. Plasser,  P. Pokhilko,  S. Prager,  A. Prociuk,  E. Ramos,  D. R. Rehn,  
 F. Rob,  M. Schneider,  N. Sergueev,  S. M. Sharada,  S. Sharma,  
 D. W. Small,  T. Stauch,  T. Stein,  Yu-Chuan Su,  A. J. W. Thom,  
 A. Tkatchenko,  T. Tsuchimochi,  N. M. Tubman,  L. Vogt,  M. L. Vidal,  
 O. Vydrov,  M. A. Watson,  J. Wenzel,  M. de Wergifosse,  T. A. Wesolowski,  
 A. White,  J. Witte,  A. Yamada,  Jun Yang,  K. Yao,  S. Yeganeh,  
 S. R. Yost,  Zhi-Qiang You,  A. Zech,  Igor Ying Zhang,  Xing Zhang,  
 Yan Zhao,  Ying Zhu,  B. R. Brooks,  G. K. L. Chan,  C. J. Cramer,  
 M. S. Gordon,  W. J. Hehre,  A. Klamt,  M. W. Schmidt,  C. D. Sherrill,  
 D. G. Truhlar,  A. Aspuru-Guzik,  R. Baer,  A. T. Bell,  N. A. Besley,  
 Jeng-Da Chai,  A. E. DePrince, III,  R. A. DiStasio Jr.,  A. Dreuw,  
 B. D. Dunietz,  T. R. Furlani,  Chao-Ping Hsu,  Yousung Jung,  Jing Kong,  
 D. S. Lambrecht,  WanZhen Liang,  C. Ochsenfeld,  V. A. Rassolov,  
 L. V. Slipchenko,  J. E. Subotnik,  T. Van Voorhis,  J. M. Herbert,  
 A. I. Krylov,  P. M. W. Gill,  M. Head-Gordon

 Contributors to earlier versions of Q-Chem not listed above: 
 R. D. Adamson,  B. Austin,  J. Baker,  G. J. O. Beran,  K. Brandhorst,  
 S. T. Brown,  E. F. C. Byrd,  A. K. Chakraborty,  C.-L. Cheng,  
 Siu Hung Chien,  D. M. Chipman,  D. L. Crittenden,  H. Dachsel,  
 R. J. Doerksen,  A. D. Dutoi,  L. Fusti-Molnar,  W. A. Goddard III,  
 A. Golubeva-Zadorozhnaya,  S. R. Gwaltney,  G. Hawkins,  A. Heyden,  
 S. Hirata,  G. Kedziora,  F. J. Keil,  C. Kelley,  Jihan Kim,  R. A. King,  
 R. Z. Khaliullin,  P. P. Korambath,  W. Kurlancheek,  A. M. Lee,  M. S. Lee,  
 S. V. Levchenko,  Ching Yeh Lin,  D. Liotard,  R. C. Lochan,  I. Lotan,  
 P. E. Maslen,  N. Nair,  D. P. O'Neill,  D. Neuhauser,  E. Neuscamman,  
 C. M. Oana,  R. Olson,  B. Peters,  R. Peverati,  P. A. Pieniazek,  
 Y. M. Rhee,  J. Ritchie,  M. A. Rohrdanz,  E. Rosta,  N. J. Russ,  
 H. F. Schaefer III,  N. E. Schultz,  N. Shenvi,  A. C. Simmonett,  A. Sodt,  
 D. Stuck,  K. S. Thanthiriwatte,  V. Vanovschi,  Tao Wang,  A. Warshel,  
 C. F. Williams,  Q. Wu,  X. Xu,  W. Zhang

 Please cite Q-Chem as follows:
 Y. Shao et al., Mol. Phys. 113, 184-215 (2015)
 DOI: 10.1080/00268976.2014.952696

 Q-Chem 5.1.2 for Intel X86 EM64T Linux

 Parts of Q-Chem use Armadillo 8.300.2 (Tropical Shenanigans).
 http://arma.sourceforge.net/

 Q-Chem begins on Wed Jul  3 17:46:38 2019  

Host: 
0

     Scratch files written to /scratch/xuedong/qchem34400//
 Dec218 |scratch|qcdevops|jenkins|workspace|build_RNUM 6581   
Processing $rem in /home/qwang/software/qchem5.1.2/config/preferences.
 MEM_TOTAL  4000 
Core orbitals will be frozen
Input Ideriv = 1
Curr. Ideriv = -1
Max.  Ideriv = 1

Checking the input file for inconsistencies... 	...done.

--------------------------------------------------------------
User input:
--------------------------------------------------------------
$molecule
0 1
Si     3.762272567     0.100944777     0.006072646
H     3.981291986     1.564414477     0.064186564
H     4.389924271    -0.416429655    -1.231422106
H     4.439607953    -0.519141536     1.167849490
C     1.925645521    -0.291305561     0.027271718
H     1.759401550    -1.366486120    -0.015128601
H     1.421772543     0.162315456    -0.824405717
H     1.458679937     0.087942478     0.934592371
Si    -3.609341984    -0.119994341     0.010562295
H    -3.839035305    -1.398896978    -0.699919466
H    -4.412794425     0.932961419    -0.651847887
H    -4.089783290    -0.266990767     1.403643392
C    -1.785744897     0.328464999    -0.013432043
H    -1.611363152     1.268284269     0.507819055
H    -1.427080308     0.437682815    -1.035521318
H    -1.189376597    -0.442436513     0.471240219
$end

$rem
BASIS = aug-cc-pVTZ
JOB_TYPE  =  SP
METHOD  =  MP2
SCF_MAX_CYCLES  =  200
$end

--------------------------------------------------------------
 ----------------------------------------------------------------
             Standard Nuclear Orientation (Angstroms)
    I     Atom           X                Y                Z
 ----------------------------------------------------------------
    1      Si      3.6887647255     0.0680009717    -0.0001397327
    2      H       3.9209353604     1.5236419797     0.1423255206
    3      H       4.3109728825    -0.3824501615    -1.2662230679
    4      H       4.3612432348    -0.6243084884     1.1230236401
    5      C       1.8487077692    -0.3084279175     0.0004288806
    6      H       1.6728022762    -1.3778263959    -0.1039369728
    7      H       1.3483870297     0.1982055688    -0.8229884658
    8      H       1.3857328458     0.0218130955     0.9287132081
    9      Si     -3.6845303907    -0.0870939821     0.0000122584
   10      H      -3.9261299129    -1.3206278178    -0.7830326040
   11      H      -4.4789249268     1.0095609421    -0.5994243146
   12      H      -4.1653938654    -0.3101918092     1.3828008969
   13      C      -1.8570005781     0.3457254018    -0.0000788222
   14      H      -1.6738701613     1.2522045179     0.5744912979
   15      H      -1.4980142297     0.5107206759    -1.0145445269
   16      H      -1.2672643674    -0.4572248680     0.4384796781
 ----------------------------------------------------------------
 Molecular Point Group                 C1    NOp =  1
 Largest Abelian Subgroup              C1    NOp =  1
 Nuclear Repulsion Energy =   186.9619710317 hartrees
 There are       26 alpha and       26 beta electrons
 Requested basis set is aug-cc-pVTZ
 There are 168 shells and 468 basis functions

 Total QAlloc Memory Limit   4000 MB
 Mega-Array Size       188 MB
 MEM_STATIC part       192 MB
 A cutoff of  1.0D-08 yielded  11274 shell pairs
 There are     84072 function pairs (    106608 Cartesian)
 
 -------------------------------------------------------
 OpenMP Integral Computing Module                       
 Release: version 1.0, May 2013, Q-Chem Inc. Pittsburgh 
 -------------------------------------------------------
 Integral Job Info:
 Integral job number is                      11
 Integral operator is                         1
 short-range coefficients                     0
 long-range coefficients              100000000
 Omega coefficients                           0
 if combine SR and LR in K                    0
 Integral screening is                        0
 Integral computing path is                   2
 max size of driver memory is            800000
 size of driver memory is                776718
 size of scratch memory is             29531563
 max col of scratch BK array              10000
 max len of scratch array in speh3          662
 max len of scratch index in speh4           32
 max int batch size is                      520
 min int batch size is                       52
 fixed nKL is                                31
 max L of basis functions is                  3
 order of int derivative is                   0
 number of shells is                        168
 number of basis is                         528
 number of cartesian basis is               528
 number of contracted shell pairs         11274
 number of primitive shell pairs          30034
 maxK2 (contraction) of shell pair          169
 max number of K2 of shell pair               1
 max number of CS2 of shell pair           2141
 max number of PS2 of shell pair           2808
 mem total for path MDJ                  777420
 -------------------------------------------------------
 Smallest overlap matrix eigenvalue = 1.12E-05

 Q-Chem warning in module stvman/mkSTV.C, line 306:

 Overlap eigenvalue is smaller than square root of threshold
 Use THRESH >= 12 to get rid of this warning


 Scale SEOQF with 1.000000e-01/1.000000e-01/1.000000e-01

 Standard Electronic Orientation quadrupole field applied
 Nucleus-field energy     =     0.0000000192 hartrees
 Guess from superposition of atomic densities
 Warning:  Energy on first SCF cycle will be non-variational
 SAD guess density has 52.000000 electrons

 -----------------------------------------------------------------------
  General SCF calculation program by
  Eric Jon Sundstrom, Paul Horn, Yuezhi Mao, Dmitri Zuev, Alec White,
  David Stuck, Shaama M.S., Shane Yost, Joonho Lee, David Small,
  Daniel Levine, Susi Lehtola, Hugh Burton, Evgeny Epifanovsky
 -----------------------------------------------------------------------
 Hartree-Fock
 using 6 threads for integral computing
 -------------------------------------------------------
 OpenMP Integral computing Module                
 Release: version 1.0, May 2013, Q-Chem Inc. Pittsburgh 
 -------------------------------------------------------
 A restricted SCF calculation will be
 performed using DIIS
 SCF converges when DIIS error is below 1.0e-05
 ---------------------------------------
  Cycle       Energy         DIIS error
 ---------------------------------------
    1    -660.9557222423      1.47e-02  
    2    -660.5885459250      1.11e-03  
    3    -660.6395060652      3.29e-04  
    4    -660.6444923673      1.34e-04  
    5    -660.6452276652      1.68e-05  
    6    -660.6452502496      3.44e-06  Convergence criterion met
 ---------------------------------------
 SCF time:   CPU 460.24s  wall 77.00s 
 SCF   energy in the final basis set =     -660.6452502496
 Total energy in the final basis set =     -660.6452502496
 
 Components of the MP2 correlation energy:
        aaaa  correlation energy =        -0.0561504563 au
        abab  correlation energy =        -0.5370927980 au
        bbbb  correlation energy =        -0.0561504563 au
        non-Brillouin singles    =        -0.0000000000 au

 Total  MP2   correlation energy =                    -0.64939371 au
        MP2         total energy =                  -661.29464396 au
 
 --------------------------------------------------------------
 
                    Orbital Energies (a.u.)
 --------------------------------------------------------------
 
 Alpha MOs
 -- Occupied --
-68.767 -68.766 -11.210 -11.209  -6.115  -6.115  -4.222  -4.222
 -4.222  -4.222  -4.221  -4.221  -0.954  -0.949  -0.701  -0.699
 -0.570  -0.567  -0.566  -0.563  -0.470  -0.470  -0.470  -0.469
 -0.462  -0.450
 -- Virtual --
  0.027   0.037   0.039   0.040   0.044   0.055   0.057   0.061
  0.064   0.067   0.072   0.073   0.078   0.087   0.088   0.099
  0.105   0.111   0.128   0.134   0.139   0.142   0.143   0.147
  0.148   0.157   0.159   0.163   0.164   0.165   0.177   0.182
  0.190   0.198   0.202   0.216   0.220   0.229   0.232   0.235
  0.244   0.250   0.256   0.257   0.259   0.272   0.287   0.289
  0.292   0.293   0.301   0.306   0.317   0.323   0.325   0.329
  0.331   0.332   0.337   0.339   0.344   0.347   0.351   0.354
  0.358   0.364   0.373   0.380   0.382   0.394   0.397   0.404
  0.411   0.424   0.431   0.434   0.442   0.443   0.452   0.456
  0.466   0.470   0.474   0.477   0.479   0.487   0.492   0.493
  0.505   0.509   0.514   0.519   0.523   0.525   0.535   0.554
  0.565   0.578   0.583   0.589   0.604   0.619   0.624   0.632
  0.644   0.648   0.651   0.654   0.657   0.662   0.663   0.671
  0.674   0.693   0.694   0.698   0.704   0.706   0.720   0.721
  0.726   0.742   0.753   0.768   0.785   0.792   0.801   0.815
  0.819   0.835   0.842   0.844   0.856   0.860   0.877   0.890
  0.891   0.902   0.908   0.917   0.926   0.930   0.940   0.945
  0.952   0.970   0.972   0.982   0.985   0.995   0.998   1.004
  1.013   1.020   1.024   1.030   1.040   1.043   1.049   1.061
  1.065   1.067   1.070   1.089   1.095   1.102   1.107   1.122
  1.124   1.128   1.138   1.139   1.149   1.154   1.162   1.169
  1.171   1.177   1.187   1.189   1.205   1.209   1.220   1.232
  1.233   1.241   1.251   1.260   1.271   1.275   1.283   1.291
  1.299   1.301   1.314   1.317   1.328   1.330   1.339   1.345
  1.346   1.364   1.381   1.385   1.392   1.395   1.407   1.417
  1.420   1.427   1.434   1.443   1.446   1.447   1.455   1.456
  1.468   1.469   1.482   1.486   1.495   1.513   1.522   1.528
  1.535   1.546   1.559   1.573   1.584   1.586   1.621   1.647
  1.654   1.657   1.658   1.674   1.678   1.684   1.697   1.715
  1.718   1.733   1.751   1.772   1.785   1.813   1.827   1.832
  1.847   1.860   1.868   1.886   1.896   1.928   1.934   1.965
  1.984   1.991   2.011   2.019   2.024   2.028   2.038   2.042
  2.056   2.059   2.068   2.077   2.090   2.093   2.123   2.136
  2.145   2.152   2.160   2.166   2.178   2.187   2.194   2.221
  2.240   2.254   2.281   2.282   2.287   2.290   2.360   2.375
  2.396   2.407   2.422   2.432   2.782   2.800   3.098   3.106
  3.110   3.115   3.137   3.212   3.325   3.352   3.415   3.420
  3.431   3.445   3.447   3.471   3.558   3.568   3.580   3.596
  3.615   3.621   3.663   3.677   3.686   3.689   3.700   3.707
  3.713   3.723   3.731   3.751   3.849   3.857   3.889   3.922
  3.946   3.955   3.968   3.982   3.992   3.992   4.020   4.044
  4.054   4.064   4.070   4.072   4.100   4.105   4.109   4.120
  4.129   4.132   4.136   4.137   4.145   4.150   4.161   4.177
  4.188   4.197   4.209   4.213   4.216   4.218   4.228   4.232
  4.247   4.261   4.265   4.297   4.333   4.335   4.336   4.337
  4.340   4.349   4.371   4.386   4.504   4.506   4.509   4.527
  4.534   4.534   4.543   4.581   4.594   4.602   4.610   4.616
  4.617   4.624   4.767   4.771   4.782   4.785   4.795   4.795
  4.806   4.811   4.819   4.822   4.856   4.878   4.893   4.899
  4.919   5.006   5.008   5.022   5.037   5.041   5.043   5.049
  5.063   5.098   5.166   5.173   5.179   5.194   5.244   5.250
  5.253   5.267   5.366   5.376   5.579   5.592   5.604   5.610
  5.613   5.624   5.650   5.660   5.939   5.973   6.113   6.125
  6.136   6.146   6.706   6.711   6.721   6.738   9.121   9.200
 17.296  17.642
 --------------------------------------------------------------
 
          Ground-State Mulliken Net Atomic Charges

     Atom                 Charge (a.u.)
  ----------------------------------------
      1 Si                    1.284984
      2 H                    -0.378110
      3 H                    -0.396315
      4 H                    -0.394570
      5 C                    -1.092043
      6 H                     0.323900
      7 H                     0.340291
      8 H                     0.314074
      9 Si                    1.306176
     10 H                    -0.381921
     11 H                    -0.396574
     12 H                    -0.392752
     13 C                    -1.066353
     14 H                     0.312566
     15 H                     0.303825
     16 H                     0.312816
  ----------------------------------------
  Sum of atomic charges =    -0.000005

 -----------------------------------------------------------------
                    Cartesian Multipole Moments
 -----------------------------------------------------------------
    Charge (ESU x 10^10)
                -0.0000
    Dipole Moment (Debye)
         X       0.0031      Y       0.0228      Z       0.0003
       Tot       0.0230
    Quadrupole Moments (Debye-Ang)
        XX     -55.8482     XY      -0.9966     YY     -46.5691
        XZ      -0.0056     YZ       0.0064     ZZ     -46.5682
    Octopole Moments (Debye-Ang^2)
       XXX       0.0622    XXY       0.0689    XYY       0.3491
       YYY      -1.8742    XXZ       0.0735    XYZ      -0.3054
       YYZ       1.2201    XZZ      -0.4794    YZZ       2.3327
       ZZZ      -1.2929
    Hexadecapole Moments (Debye-Ang^3)
      XXXX   -3225.3638   XXXY       6.3842   XXYY    -549.5774
      XYYY     -15.3652   YYYY    -125.0079   XXXZ      -1.1784
      XXYZ       3.2462   XYYZ      -7.0988   YYYZ       0.5621
      XXZZ    -555.0587   XYZZ       0.2225   YYZZ     -40.1347
      XZZZ       7.3711   YZZZ      -0.1818   ZZZZ    -114.1690
 -----------------------------------------------------------------
Archival summary:
1\1\mm2.localdomain\SP\MP2\BasisUnspecified\i2212\xuedong\WedJul317:54:242019WedJul317:54:242019\0\\#,MP2,BasisUnspecified,\\0,1\Si\H,1,1.48089\H,1,1.48091,2,108.381\H,1,1.48092,2,108.378,3,117.417,0\C,1,1.87808,2,110.567,3,-121.294,0\H,5,1.08851,1,110.927,2,-179.937,0\H,5,1.08869,1,110.845,2,-59.996,0\H,5,1.08875,1,110.826,2,59.9946,0\H,6,2.74011,5,117.884,1,-170.98,0\C,9,1.08863,6,101.898,5,-90.9412,0\H,10,1.08858,9,107.96,6,52.8192,0\H,10,1.08878,9,108.118,6,-63.8822,0\Si,10,1.87817,9,110.862,6,174.48,0\H,13,1.48088,10,110.546,9,60.0552,0\H,13,1.48088,10,110.544,9,-179.931,0\H,13,1.48091,10,110.522,9,-59.9389,0\\HF=-660.64525\MP2=-661.294644\\@

 Total job time:  465.75s(wall), 2760.76s(cpu) 
 Wed Jul  3 17:54:24 2019

        *************************************************************
        *                                                           *
        *  Thank you very much for using Q-Chem.  Have a nice day.  *
        *                                                           *
        *************************************************************



Running Job 2 of 3 ../qm_inp/SiH3CH3_SiH3CH3_con3.095.qcinp
qchem ../qm_inp/SiH3CH3_SiH3CH3_con3.095.qcinp_34400.1 /scratch/xuedong/qchem34400/ 1
/home/qwang/software/qchem5.1.2/exe/qcprog.exe_s ../qm_inp/SiH3CH3_SiH3CH3_con3.095.qcinp_34400.1 /scratch/xuedong/qchem34400/
Check license passed

                  Welcome to Q-Chem
     A Quantum Leap Into The Future Of Chemistry


 Q-Chem 5.1, Q-Chem, Inc., Pleasanton, CA (2018)

 Yihan Shao,  Zhengting Gan,  E. Epifanovsky,  A. T. B. Gilbert,  M. Wormit,  
 J. Kussmann,  A. W. Lange,  A. Behn,  Jia Deng,  Xintian Feng,  D. Ghosh,  
 M. Goldey,  P. R. Horn,  L. D. Jacobson,  I. Kaliman,  T. Kus,  A. Landau,  
 Jie Liu,  E. I. Proynov,  R. M. Richard,  R. P. Steele,  E. J. Sundstrom,  
 H. L. Woodcock III,  P. M. Zimmerman,  D. Zuev,  B. Albrecht,  E. Alguire,  
 S. A. Baeppler,  D. Barton,  Z. Benda,  Y. A. Bernard,  E. J. Berquist,  
 K. B. Bravaya,  H. Burton,  D. Casanova,  Chun-Min Chang,  Yunqing Chen,  
 A. Chien,  K. D. Closser,  M. P. Coons,  S. Coriani,  S. Dasgupta,  
 A. L. Dempwolff,  M. Diedenhofen,  Hainam Do,  R. G. Edgar,  Po-Tung Fang,  
 S. Faraji,  S. Fatehi,  Qingguo Feng,  K. D. Fenk,  J. Fosso-Tande,  
 J. Gayvert,  Qinghui Ge,  A. Ghysels,  G. Gidofalvi,  J. Gomes,  
 J. Gonthier,  A. Gunina,  D. Hait,  M. W. D. Hanson-Heine,  
 P. H. P. Harbach,  A. W. Hauser,  J. E. Herr,  E. G. Hohenstein,  
 Z. C. Holden,  Kerwin Hui,  B. C. Huynh,  T.-C. Jagau,  Hyunjun Ji,  
 B. Kaduk,  K. Khistyaev,  Jaehoon Kim,  P. Klunzinger,  K. Koh,  
 D. Kosenkov,  L. Koulias,  T. Kowalczyk,  C. M. Krauter,  A. Kunitsa,  
 Ka Un Lao,  A. Laurent,  K. V. Lawler,  Joonho Lee,  D. Lefrancois,  
 S. Lehtola,  D. S. Levine,  Yi-Pei Li,  You-Sheng Lin,  Fenglai Liu,  
 E. Livshits,  A. Luenser,  P. Manohar,  E. Mansoor,  S. F. Manzer,  
 Shan-Ping Mao,  Yuezhi Mao,  N. Mardirossian,  A. V. Marenich,  
 T. Markovich,  L. A. Martinez-Martinez,  S. A. Maurer,  N. J. Mayhall,  
 S. C. McKenzie,  J.-M. Mewes,  A. F. Morrison,  J. W. Mullinax,  K. Nanda,  
 T. S. Nguyen-Beck,  R. Olivares-Amaya,  J. A. Parkhill,  T. M. Perrine,  
 F. Plasser,  P. Pokhilko,  S. Prager,  A. Prociuk,  E. Ramos,  D. R. Rehn,  
 F. Rob,  M. Schneider,  N. Sergueev,  S. M. Sharada,  S. Sharma,  
 D. W. Small,  T. Stauch,  T. Stein,  Yu-Chuan Su,  A. J. W. Thom,  
 A. Tkatchenko,  T. Tsuchimochi,  N. M. Tubman,  L. Vogt,  M. L. Vidal,  
 O. Vydrov,  M. A. Watson,  J. Wenzel,  M. de Wergifosse,  T. A. Wesolowski,  
 A. White,  J. Witte,  A. Yamada,  Jun Yang,  K. Yao,  S. Yeganeh,  
 S. R. Yost,  Zhi-Qiang You,  A. Zech,  Igor Ying Zhang,  Xing Zhang,  
 Yan Zhao,  Ying Zhu,  B. R. Brooks,  G. K. L. Chan,  C. J. Cramer,  
 M. S. Gordon,  W. J. Hehre,  A. Klamt,  M. W. Schmidt,  C. D. Sherrill,  
 D. G. Truhlar,  A. Aspuru-Guzik,  R. Baer,  A. T. Bell,  N. A. Besley,  
 Jeng-Da Chai,  A. E. DePrince, III,  R. A. DiStasio Jr.,  A. Dreuw,  
 B. D. Dunietz,  T. R. Furlani,  Chao-Ping Hsu,  Yousung Jung,  Jing Kong,  
 D. S. Lambrecht,  WanZhen Liang,  C. Ochsenfeld,  V. A. Rassolov,  
 L. V. Slipchenko,  J. E. Subotnik,  T. Van Voorhis,  J. M. Herbert,  
 A. I. Krylov,  P. M. W. Gill,  M. Head-Gordon

 Contributors to earlier versions of Q-Chem not listed above: 
 R. D. Adamson,  B. Austin,  J. Baker,  G. J. O. Beran,  K. Brandhorst,  
 S. T. Brown,  E. F. C. Byrd,  A. K. Chakraborty,  C.-L. Cheng,  
 Siu Hung Chien,  D. M. Chipman,  D. L. Crittenden,  H. Dachsel,  
 R. J. Doerksen,  A. D. Dutoi,  L. Fusti-Molnar,  W. A. Goddard III,  
 A. Golubeva-Zadorozhnaya,  S. R. Gwaltney,  G. Hawkins,  A. Heyden,  
 S. Hirata,  G. Kedziora,  F. J. Keil,  C. Kelley,  Jihan Kim,  R. A. King,  
 R. Z. Khaliullin,  P. P. Korambath,  W. Kurlancheek,  A. M. Lee,  M. S. Lee,  
 S. V. Levchenko,  Ching Yeh Lin,  D. Liotard,  R. C. Lochan,  I. Lotan,  
 P. E. Maslen,  N. Nair,  D. P. O'Neill,  D. Neuhauser,  E. Neuscamman,  
 C. M. Oana,  R. Olson,  B. Peters,  R. Peverati,  P. A. Pieniazek,  
 Y. M. Rhee,  J. Ritchie,  M. A. Rohrdanz,  E. Rosta,  N. J. Russ,  
 H. F. Schaefer III,  N. E. Schultz,  N. Shenvi,  A. C. Simmonett,  A. Sodt,  
 D. Stuck,  K. S. Thanthiriwatte,  V. Vanovschi,  Tao Wang,  A. Warshel,  
 C. F. Williams,  Q. Wu,  X. Xu,  W. Zhang

 Please cite Q-Chem as follows:
 Y. Shao et al., Mol. Phys. 113, 184-215 (2015)
 DOI: 10.1080/00268976.2014.952696

 Q-Chem 5.1.2 for Intel X86 EM64T Linux

 Parts of Q-Chem use Armadillo 8.300.2 (Tropical Shenanigans).
 http://arma.sourceforge.net/

 Q-Chem begins on Wed Jul  3 17:54:24 2019  

Host: 
0

     Scratch files written to /scratch/xuedong/qchem34400//
 Dec218 |scratch|qcdevops|jenkins|workspace|build_RNUM 6581   
Processing $rem in /home/qwang/software/qchem5.1.2/config/preferences.
 MEM_TOTAL  4000 
Core orbitals will be frozen
Input Ideriv = 1
Curr. Ideriv = -1
Max.  Ideriv = 1

Checking the input file for inconsistencies... 	...done.

--------------------------------------------------------------
User input:
--------------------------------------------------------------

$molecule
0 1
Si     3.762272567     0.100944777     0.006072646
H     3.981291986     1.564414477     0.064186564
H     4.389924271    -0.416429655    -1.231422106
H     4.439607953    -0.519141536     1.167849490
C     1.925645521    -0.291305561     0.027271718
H     1.759401550    -1.366486120    -0.015128601
H     1.421772543     0.162315456    -0.824405717
H     1.458679937     0.087942478     0.934592371
@Si   -3.609341984    -0.119994341     0.010562295
@H    -3.839035305    -1.398896978    -0.699919466
@H    -4.412794425     0.932961419    -0.651847887
@H    -4.089783290    -0.266990767     1.403643392
@C    -1.785744897     0.328464999    -0.013432043
@H    -1.611363152     1.268284269     0.507819055
@H    -1.427080308     0.437682815    -1.035521318
@H    -1.189376597    -0.442436513     0.471240219
$end

$rem
BASIS = aug-cc-pVTZ
JOB_TYPE  =  SP
METHOD  =  MP2
SCF_MAX_CYCLES  =  200
$end

--------------------------------------------------------------
 ----------------------------------------------------------------
             Standard Nuclear Orientation (Angstroms)
    I     Atom           X                Y                Z
 ----------------------------------------------------------------
    1      Si      3.7622725670     0.1009447770     0.0060726460
    2      H       3.9812919860     1.5644144770     0.0641865640
    3      H       4.3899242710    -0.4164296550    -1.2314221060
    4      H       4.4396079530    -0.5191415360     1.1678494900
    5      C       1.9256455210    -0.2913055610     0.0272717180
    6      H       1.7594015500    -1.3664861200    -0.0151286010
    7      H       1.4217725430     0.1623154560    -0.8244057170
    8      H       1.4586799370     0.0879424780     0.9345923710
    9      GH     -3.6093419840    -0.1199943410     0.0105622950
   10      GH     -3.8390353050    -1.3988969780    -0.6999194660
   11      GH     -4.4127944250     0.9329614190    -0.6518478870
   12      GH     -4.0897832900    -0.2669907670     1.4036433920
   13      GH     -1.7857448970     0.3284649990    -0.0134320430
   14      GH     -1.6113631520     1.2682842690     0.5078190550
   15      GH     -1.4270803080     0.4376828150    -1.0355213180
   16      GH     -1.1893765970    -0.4424365130     0.4712402190
 ----------------------------------------------------------------
 Nuclear Repulsion Energy =    62.8465305472 hartrees
 There are       13 alpha and       13 beta electrons
 Requested basis set is aug-cc-pVTZ
 There are 168 shells and 468 basis functions

 Total QAlloc Memory Limit   4000 MB
 Mega-Array Size       188 MB
 MEM_STATIC part       192 MB
 A cutoff of  1.0D-08 yielded  11274 shell pairs
 There are     84072 function pairs (    106608 Cartesian)
 
 -------------------------------------------------------
 OpenMP Integral Computing Module                       
 Release: version 1.0, May 2013, Q-Chem Inc. Pittsburgh 
 -------------------------------------------------------
 Integral Job Info:
 Integral job number is                      11
 Integral operator is                         1
 short-range coefficients                     0
 long-range coefficients              100000000
 Omega coefficients                           0
 if combine SR and LR in K                    0
 Integral screening is                        0
 Integral computing path is                   2
 max size of driver memory is            800000
 size of driver memory is                776718
 size of scratch memory is             29531563
 max col of scratch BK array              10000
 max len of scratch array in speh3          662
 max len of scratch index in speh4           32
 max int batch size is                      520
 min int batch size is                       52
 fixed nKL is                                31
 max L of basis functions is                  3
 order of int derivative is                   0
 number of shells is                        168
 number of basis is                         528
 number of cartesian basis is               528
 number of contracted shell pairs         11274
 number of primitive shell pairs          30034
 maxK2 (contraction) of shell pair          169
 max number of K2 of shell pair               1
 max number of CS2 of shell pair           2141
 max number of PS2 of shell pair           2808
 mem total for path MDJ                  777420
 -------------------------------------------------------
 Smallest overlap matrix eigenvalue = 1.12E-05

 Q-Chem warning in module stvman/mkSTV.C, line 306:

 Overlap eigenvalue is smaller than square root of threshold
 Use THRESH >= 12 to get rid of this warning


 Scale SEOQF with 1.000000e-01/1.000000e-01/1.000000e-01

 Standard Electronic Orientation quadrupole field applied
 Nucleus-field energy     =     0.0000000100 hartrees
 Guess from superposition of atomic densities
 Warning:  Energy on first SCF cycle will be non-variational
 SAD guess density has 26.000000 electrons

 -----------------------------------------------------------------------
  General SCF calculation program by
  Eric Jon Sundstrom, Paul Horn, Yuezhi Mao, Dmitri Zuev, Alec White,
  David Stuck, Shaama M.S., Shane Yost, Joonho Lee, David Small,
  Daniel Levine, Susi Lehtola, Hugh Burton, Evgeny Epifanovsky
 -----------------------------------------------------------------------
 Hartree-Fock
 using 6 threads for integral computing
 -------------------------------------------------------
 OpenMP Integral computing Module                
 Release: version 1.0, May 2013, Q-Chem Inc. Pittsburgh 
 -------------------------------------------------------
 A restricted SCF calculation will be
 performed using DIIS
 SCF converges when DIIS error is below 1.0e-05
 ---------------------------------------
  Cycle       Energy         DIIS error
 ---------------------------------------
    1    -330.4723929618      1.04e-02  
    2    -330.2950719240      7.86e-04  
    3    -330.3203309906      2.33e-04  
    4    -330.3228041399      9.49e-05  
    5    -330.3231706905      1.18e-05  
    6    -330.3231818373      2.48e-06  Convergence criterion met
 ---------------------------------------
 SCF time:   CPU 416.71s  wall 69.00s 
 SCF   energy in the final basis set =     -330.3231818373
 Total energy in the final basis set =     -330.3231818373
 
 Components of the MP2 correlation energy:
        aaaa  correlation energy =        -0.0278560323 au
        abab  correlation energy =        -0.2680692888 au
        bbbb  correlation energy =        -0.0278560323 au
        non-Brillouin singles    =        -0.0000000000 au

 Total  MP2   correlation energy =                    -0.32378135 au
        MP2         total energy =                  -330.64696319 au
 
 --------------------------------------------------------------
 
                    Orbital Energies (a.u.)
 --------------------------------------------------------------
 
 Alpha MOs
 -- Occupied --
-68.766 -11.208  -6.115  -4.221  -4.221  -4.220  -0.950  -0.699
 -0.565  -0.565  -0.469  -0.469  -0.455
 -- Virtual --
  0.019   0.034   0.037   0.038   0.043   0.053   0.054   0.061
  0.064   0.068   0.072   0.074   0.078   0.085   0.087   0.088
  0.101   0.105   0.117   0.121   0.124   0.130   0.142   0.145
  0.145   0.157   0.160   0.165   0.170   0.177   0.189   0.194
  0.197   0.203   0.204   0.210   0.215   0.226   0.236   0.241
  0.242   0.250   0.252   0.260   0.272   0.279   0.288   0.290
  0.294   0.300   0.303   0.308   0.309   0.315   0.318   0.329
  0.334   0.339   0.341   0.343   0.345   0.351   0.360   0.364
  0.370   0.378   0.387   0.393   0.408   0.411   0.418   0.420
  0.428   0.430   0.437   0.439   0.443   0.448   0.453   0.466
  0.474   0.476   0.479   0.482   0.486   0.490   0.501   0.509
  0.515   0.518   0.519   0.533   0.541   0.547   0.551   0.567
  0.575   0.584   0.593   0.597   0.610   0.613   0.624   0.635
  0.643   0.651   0.656   0.659   0.663   0.672   0.679   0.689
  0.692   0.699   0.701   0.708   0.716   0.739   0.748   0.755
  0.774   0.785   0.793   0.797   0.803   0.814   0.820   0.835
  0.845   0.846   0.853   0.867   0.875   0.894   0.901   0.909
  0.922   0.927   0.930   0.934   0.944   0.953   0.959   0.982
  0.988   0.997   1.007   1.009   1.017   1.022   1.030   1.038
  1.045   1.050   1.054   1.062   1.071   1.080   1.083   1.091
  1.097   1.103   1.111   1.119   1.130   1.140   1.143   1.150
  1.154   1.156   1.166   1.167   1.169   1.174   1.184   1.188
  1.195   1.197   1.201   1.217   1.219   1.226   1.232   1.235
  1.245   1.254   1.271   1.273   1.280   1.296   1.301   1.312
  1.322   1.324   1.339   1.343   1.345   1.353   1.362   1.372
  1.376   1.392   1.399   1.406   1.411   1.417   1.422   1.426
  1.433   1.445   1.448   1.453   1.459   1.468   1.474   1.493
  1.505   1.516   1.523   1.543   1.551   1.562   1.574   1.585
  1.602   1.611   1.620   1.635   1.642   1.658   1.669   1.671
  1.686   1.702   1.707   1.711   1.738   1.748   1.759   1.788
  1.795   1.800   1.813   1.827   1.838   1.849   1.877   1.891
  1.896   1.907   1.927   1.936   1.945   1.966   1.973   2.002
  2.025   2.033   2.041   2.050   2.055   2.069   2.075   2.084
  2.087   2.107   2.134   2.142   2.153   2.164   2.172   2.185
  2.213   2.218   2.236   2.280   2.287   2.305   2.319   2.346
  2.364   2.379   2.400   2.435   2.444   2.461   2.484   2.488
  2.519   2.558   2.563   2.580   2.695   2.700   2.783   2.800
  2.809   2.826   2.998   3.013   3.105   3.112   3.162   3.208
  3.351   3.427   3.439   3.461   3.575   3.588   3.616   3.687
  3.690   3.710   3.720   3.725   3.772   3.781   3.845   3.890
  3.900   3.951   3.962   3.972   3.993   4.039   4.052   4.067
  4.088   4.098   4.104   4.108   4.116   4.133   4.137   4.143
  4.149   4.171   4.179   4.185   4.200   4.218   4.219   4.238
  4.244   4.260   4.280   4.285   4.297   4.335   4.337   4.345
  4.367   4.371   4.375   4.380   4.396   4.422   4.451   4.456
  4.493   4.502   4.519   4.531   4.533   4.545   4.554   4.568
  4.576   4.586   4.602   4.609   4.616   4.636   4.653   4.656
  4.658   4.674   4.735   4.736   4.777   4.786   4.791   4.808
  4.811   4.837   4.869   4.888   4.904   4.907   4.917   4.927
  4.951   5.006   5.010   5.040   5.046   5.057   5.075   5.169
  5.174   5.178   5.181   5.223   5.240   5.247   5.267   5.306
  5.308   5.348   5.349   5.352   5.361   5.391   5.472   5.479
  5.501   5.512   5.571   5.584   5.611   5.619   5.654   5.660
  5.681   5.764   5.958   6.070   6.118   6.142   6.158   6.161
  6.166   6.197   6.210   6.227   6.715   6.720   6.788   6.790
  7.095   7.480   7.816   7.821   8.202   8.212   9.167  10.362
 15.260  17.524  20.453  20.468  20.851  52.115 107.007
 --------------------------------------------------------------
 
          Ground-State Mulliken Net Atomic Charges

     Atom                 Charge (a.u.)
  ----------------------------------------
      1 Si                    1.282763
      2 H                    -0.377196
      3 H                    -0.395846
      4 H                    -0.394018
      5 C                    -1.095973
      6 H                     0.321916
      7 H                     0.343172
      8 H                     0.315414
      9 GH                    0.000914
     10 GH                    0.000013
     11 GH                    0.000176
     12 GH                    0.000074
     13 GH                    0.007144
     14 GH                    0.001216
     15 GH                   -0.002153
     16 GH                   -0.007619
  ----------------------------------------
  Sum of atomic charges =    -0.000003

 -----------------------------------------------------------------
                    Cartesian Multipole Moments
 -----------------------------------------------------------------
    Charge (ESU x 10^10)
                -0.0000
    Dipole Moment (Debye)
         X      -0.6928      Y      -0.1486      Z       0.0081
       Tot       0.7086
    Quadrupole Moments (Debye-Ang)
        XX     -28.0090     XY      -0.5301     YY     -23.2867
        XZ       0.0210     YZ      -0.0003     ZZ     -23.2815
    Octopole Moments (Debye-Ang^2)
       XXX    -245.6526    XXY      -0.2902    XYY     -75.6393
       YYY      -1.5776    XXZ      -0.3313    XYZ       0.0521
       YYZ      -0.5227    XZZ     -76.7383    YZZ       1.9296
       ZZZ      -0.5478
    Hexadecapole Moments (Debye-Ang^3)
      XXXX   -1685.6347   XXXY      -3.7071   XXYY    -284.5967
      XYYY     -16.8422   YYYY     -61.8427   XXXZ      -2.8597
      XXYZ       0.3894   XYYZ      -1.4385   YYYZ       0.1524
      XXZZ    -290.5032   XYZZ       1.9281   YYZZ     -20.0823
      XZZZ      -1.2268   YZZZ       0.2076   ZZZZ     -57.0972
 -----------------------------------------------------------------
Archival summary:
1\1\mm2.localdomain\SP\MP2\BasisUnspecified\i116h8\xuedong\WedJul318:01:352019WedJul318:01:352019\0\\#,MP2,BasisUnspecified,\\0,1\Si\H,1,1.48088\H,1,1.48088,2,108.387\H,1,1.48091,2,108.383,3,-117.43,0\C,1,1.87817,2,110.546,3,121.3,0\H,5,1.08858,1,110.902,2,179.974,0\H,5,1.08863,1,110.862,2,60.0552,0\H,5,1.08878,1,110.8,2,-59.9955,0\Gh,7,2.74011,5,101.898,1,174.48,0\Gh,9,1.08851,7,117.884,5,-90.9412,0\Gh,10,1.08869,9,107.974,7,67.381,0\Gh,10,1.08875,9,108.084,7,-49.292,0\Gh,10,1.87808,9,110.927,7,-170.98,0\Gh,13,1.48089,10,110.567,9,-179.937,0\Gh,13,1.48091,10,110.532,9,60.0505,0\Gh,13,1.48092,10,110.529,9,-59.9311,0\\HF=-330.323182\MP2=-330.646963\\@

 Total job time:  431.84s(wall), 2582.58s(cpu) 
 Wed Jul  3 18:01:35 2019

        *************************************************************
        *                                                           *
        *  Thank you very much for using Q-Chem.  Have a nice day.  *
        *                                                           *
        *************************************************************



Running Job 3 of 3 ../qm_inp/SiH3CH3_SiH3CH3_con3.095.qcinp
qchem ../qm_inp/SiH3CH3_SiH3CH3_con3.095.qcinp_34400.2 /scratch/xuedong/qchem34400/ 1
/home/qwang/software/qchem5.1.2/exe/qcprog.exe_s ../qm_inp/SiH3CH3_SiH3CH3_con3.095.qcinp_34400.2 /scratch/xuedong/qchem34400/
Check license passed

                  Welcome to Q-Chem
     A Quantum Leap Into The Future Of Chemistry


 Q-Chem 5.1, Q-Chem, Inc., Pleasanton, CA (2018)

 Yihan Shao,  Zhengting Gan,  E. Epifanovsky,  A. T. B. Gilbert,  M. Wormit,  
 J. Kussmann,  A. W. Lange,  A. Behn,  Jia Deng,  Xintian Feng,  D. Ghosh,  
 M. Goldey,  P. R. Horn,  L. D. Jacobson,  I. Kaliman,  T. Kus,  A. Landau,  
 Jie Liu,  E. I. Proynov,  R. M. Richard,  R. P. Steele,  E. J. Sundstrom,  
 H. L. Woodcock III,  P. M. Zimmerman,  D. Zuev,  B. Albrecht,  E. Alguire,  
 S. A. Baeppler,  D. Barton,  Z. Benda,  Y. A. Bernard,  E. J. Berquist,  
 K. B. Bravaya,  H. Burton,  D. Casanova,  Chun-Min Chang,  Yunqing Chen,  
 A. Chien,  K. D. Closser,  M. P. Coons,  S. Coriani,  S. Dasgupta,  
 A. L. Dempwolff,  M. Diedenhofen,  Hainam Do,  R. G. Edgar,  Po-Tung Fang,  
 S. Faraji,  S. Fatehi,  Qingguo Feng,  K. D. Fenk,  J. Fosso-Tande,  
 J. Gayvert,  Qinghui Ge,  A. Ghysels,  G. Gidofalvi,  J. Gomes,  
 J. Gonthier,  A. Gunina,  D. Hait,  M. W. D. Hanson-Heine,  
 P. H. P. Harbach,  A. W. Hauser,  J. E. Herr,  E. G. Hohenstein,  
 Z. C. Holden,  Kerwin Hui,  B. C. Huynh,  T.-C. Jagau,  Hyunjun Ji,  
 B. Kaduk,  K. Khistyaev,  Jaehoon Kim,  P. Klunzinger,  K. Koh,  
 D. Kosenkov,  L. Koulias,  T. Kowalczyk,  C. M. Krauter,  A. Kunitsa,  
 Ka Un Lao,  A. Laurent,  K. V. Lawler,  Joonho Lee,  D. Lefrancois,  
 S. Lehtola,  D. S. Levine,  Yi-Pei Li,  You-Sheng Lin,  Fenglai Liu,  
 E. Livshits,  A. Luenser,  P. Manohar,  E. Mansoor,  S. F. Manzer,  
 Shan-Ping Mao,  Yuezhi Mao,  N. Mardirossian,  A. V. Marenich,  
 T. Markovich,  L. A. Martinez-Martinez,  S. A. Maurer,  N. J. Mayhall,  
 S. C. McKenzie,  J.-M. Mewes,  A. F. Morrison,  J. W. Mullinax,  K. Nanda,  
 T. S. Nguyen-Beck,  R. Olivares-Amaya,  J. A. Parkhill,  T. M. Perrine,  
 F. Plasser,  P. Pokhilko,  S. Prager,  A. Prociuk,  E. Ramos,  D. R. Rehn,  
 F. Rob,  M. Schneider,  N. Sergueev,  S. M. Sharada,  S. Sharma,  
 D. W. Small,  T. Stauch,  T. Stein,  Yu-Chuan Su,  A. J. W. Thom,  
 A. Tkatchenko,  T. Tsuchimochi,  N. M. Tubman,  L. Vogt,  M. L. Vidal,  
 O. Vydrov,  M. A. Watson,  J. Wenzel,  M. de Wergifosse,  T. A. Wesolowski,  
 A. White,  J. Witte,  A. Yamada,  Jun Yang,  K. Yao,  S. Yeganeh,  
 S. R. Yost,  Zhi-Qiang You,  A. Zech,  Igor Ying Zhang,  Xing Zhang,  
 Yan Zhao,  Ying Zhu,  B. R. Brooks,  G. K. L. Chan,  C. J. Cramer,  
 M. S. Gordon,  W. J. Hehre,  A. Klamt,  M. W. Schmidt,  C. D. Sherrill,  
 D. G. Truhlar,  A. Aspuru-Guzik,  R. Baer,  A. T. Bell,  N. A. Besley,  
 Jeng-Da Chai,  A. E. DePrince, III,  R. A. DiStasio Jr.,  A. Dreuw,  
 B. D. Dunietz,  T. R. Furlani,  Chao-Ping Hsu,  Yousung Jung,  Jing Kong,  
 D. S. Lambrecht,  WanZhen Liang,  C. Ochsenfeld,  V. A. Rassolov,  
 L. V. Slipchenko,  J. E. Subotnik,  T. Van Voorhis,  J. M. Herbert,  
 A. I. Krylov,  P. M. W. Gill,  M. Head-Gordon

 Contributors to earlier versions of Q-Chem not listed above: 
 R. D. Adamson,  B. Austin,  J. Baker,  G. J. O. Beran,  K. Brandhorst,  
 S. T. Brown,  E. F. C. Byrd,  A. K. Chakraborty,  C.-L. Cheng,  
 Siu Hung Chien,  D. M. Chipman,  D. L. Crittenden,  H. Dachsel,  
 R. J. Doerksen,  A. D. Dutoi,  L. Fusti-Molnar,  W. A. Goddard III,  
 A. Golubeva-Zadorozhnaya,  S. R. Gwaltney,  G. Hawkins,  A. Heyden,  
 S. Hirata,  G. Kedziora,  F. J. Keil,  C. Kelley,  Jihan Kim,  R. A. King,  
 R. Z. Khaliullin,  P. P. Korambath,  W. Kurlancheek,  A. M. Lee,  M. S. Lee,  
 S. V. Levchenko,  Ching Yeh Lin,  D. Liotard,  R. C. Lochan,  I. Lotan,  
 P. E. Maslen,  N. Nair,  D. P. O'Neill,  D. Neuhauser,  E. Neuscamman,  
 C. M. Oana,  R. Olson,  B. Peters,  R. Peverati,  P. A. Pieniazek,  
 Y. M. Rhee,  J. Ritchie,  M. A. Rohrdanz,  E. Rosta,  N. J. Russ,  
 H. F. Schaefer III,  N. E. Schultz,  N. Shenvi,  A. C. Simmonett,  A. Sodt,  
 D. Stuck,  K. S. Thanthiriwatte,  V. Vanovschi,  Tao Wang,  A. Warshel,  
 C. F. Williams,  Q. Wu,  X. Xu,  W. Zhang

 Please cite Q-Chem as follows:
 Y. Shao et al., Mol. Phys. 113, 184-215 (2015)
 DOI: 10.1080/00268976.2014.952696

 Q-Chem 5.1.2 for Intel X86 EM64T Linux

 Parts of Q-Chem use Armadillo 8.300.2 (Tropical Shenanigans).
 http://arma.sourceforge.net/

 Q-Chem begins on Wed Jul  3 18:01:35 2019  

Host: 
0

     Scratch files written to /scratch/xuedong/qchem34400//
 Dec218 |scratch|qcdevops|jenkins|workspace|build_RNUM 6581   
Processing $rem in /home/qwang/software/qchem5.1.2/config/preferences.
 MEM_TOTAL  4000 
Core orbitals will be frozen
Input Ideriv = 1
Curr. Ideriv = -1
Max.  Ideriv = 1

Checking the input file for inconsistencies... 	...done.

--------------------------------------------------------------
User input:
--------------------------------------------------------------

$molecule
0 1
@Si    3.762272567     0.100944777     0.006072646
@H     3.981291986     1.564414477     0.064186564
@H     4.389924271    -0.416429655    -1.231422106
@H     4.439607953    -0.519141536     1.167849490
@C     1.925645521    -0.291305561     0.027271718
@H     1.759401550    -1.366486120    -0.015128601
@H     1.421772543     0.162315456    -0.824405717
@H     1.458679937     0.087942478     0.934592371
Si   -3.609341984    -0.119994341     0.010562295
H    -3.839035305    -1.398896978    -0.699919466
H    -4.412794425     0.932961419    -0.651847887
H    -4.089783290    -0.266990767     1.403643392
C    -1.785744897     0.328464999    -0.013432043
H    -1.611363152     1.268284269     0.507819055
H    -1.427080308     0.437682815    -1.035521318
H    -1.189376597    -0.442436513     0.471240219
$end

$rem
BASIS = aug-cc-pVTZ
JOB_TYPE  =  SP
METHOD  =  MP2
SCF_MAX_CYCLES  =  200
$end

--------------------------------------------------------------
 ----------------------------------------------------------------
             Standard Nuclear Orientation (Angstroms)
    I     Atom           X                Y                Z
 ----------------------------------------------------------------
    1      GH      3.7622725670     0.1009447770     0.0060726460
    2      GH      3.9812919860     1.5644144770     0.0641865640
    3      GH      4.3899242710    -0.4164296550    -1.2314221060
    4      GH      4.4396079530    -0.5191415360     1.1678494900
    5      GH      1.9256455210    -0.2913055610     0.0272717180
    6      GH      1.7594015500    -1.3664861200    -0.0151286010
    7      GH      1.4217725430     0.1623154560    -0.8244057170
    8      GH      1.4586799370     0.0879424780     0.9345923710
    9      Si     -3.6093419840    -0.1199943410     0.0105622950
   10      H      -3.8390353050    -1.3988969780    -0.6999194660
   11      H      -4.4127944250     0.9329614190    -0.6518478870
   12      H      -4.0897832900    -0.2669907670     1.4036433920
   13      C      -1.7857448970     0.3284649990    -0.0134320430
   14      H      -1.6113631520     1.2682842690     0.5078190550
   15      H      -1.4270803080     0.4376828150    -1.0355213180
   16      H      -1.1893765970    -0.4424365130     0.4712402190
 ----------------------------------------------------------------
 Nuclear Repulsion Energy =    62.8472945201 hartrees
 There are       13 alpha and       13 beta electrons
 Requested basis set is aug-cc-pVTZ
 There are 168 shells and 468 basis functions

 Total QAlloc Memory Limit   4000 MB
 Mega-Array Size       188 MB
 MEM_STATIC part       192 MB
 A cutoff of  1.0D-08 yielded  11274 shell pairs
 There are     84072 function pairs (    106608 Cartesian)
 
 -------------------------------------------------------
 OpenMP Integral Computing Module                       
 Release: version 1.0, May 2013, Q-Chem Inc. Pittsburgh 
 -------------------------------------------------------
 Integral Job Info:
 Integral job number is                      11
 Integral operator is                         1
 short-range coefficients                     0
 long-range coefficients              100000000
 Omega coefficients                           0
 if combine SR and LR in K                    0
 Integral screening is                        0
 Integral computing path is                   2
 max size of driver memory is            800000
 size of driver memory is                776718
 size of scratch memory is             29531563
 max col of scratch BK array              10000
 max len of scratch array in speh3          662
 max len of scratch index in speh4           32
 max int batch size is                      520
 min int batch size is                       52
 fixed nKL is                                31
 max L of basis functions is                  3
 order of int derivative is                   0
 number of shells is                        168
 number of basis is                         528
 number of cartesian basis is               528
 number of contracted shell pairs         11274
 number of primitive shell pairs          30034
 maxK2 (contraction) of shell pair          169
 max number of K2 of shell pair               1
 max number of CS2 of shell pair           2141
 max number of PS2 of shell pair           2808
 mem total for path MDJ                  777420
 -------------------------------------------------------
 Smallest overlap matrix eigenvalue = 1.12E-05

 Q-Chem warning in module stvman/mkSTV.C, line 306:

 Overlap eigenvalue is smaller than square root of threshold
 Use THRESH >= 12 to get rid of this warning


 Scale SEOQF with 1.000000e-01/1.000000e-01/1.000000e-01

 Standard Electronic Orientation quadrupole field applied
 Nucleus-field energy     =     0.0000000092 hartrees
 Guess from superposition of atomic densities
 Warning:  Energy on first SCF cycle will be non-variational
 SAD guess density has 26.000000 electrons

 -----------------------------------------------------------------------
  General SCF calculation program by
  Eric Jon Sundstrom, Paul Horn, Yuezhi Mao, Dmitri Zuev, Alec White,
  David Stuck, Shaama M.S., Shane Yost, Joonho Lee, David Small,
  Daniel Levine, Susi Lehtola, Hugh Burton, Evgeny Epifanovsky
 -----------------------------------------------------------------------
 Hartree-Fock
 using 6 threads for integral computing
 -------------------------------------------------------
 OpenMP Integral computing Module                
 Release: version 1.0, May 2013, Q-Chem Inc. Pittsburgh 
 -------------------------------------------------------
 A restricted SCF calculation will be
 performed using DIIS
 SCF converges when DIIS error is below 1.0e-05
 ---------------------------------------
  Cycle       Energy         DIIS error
 ---------------------------------------
    1    -330.4724865573      1.04e-02  
    2    -330.2950700104      7.86e-04  
    3    -330.3203287519      2.33e-04  
    4    -330.3228018403      9.49e-05  
    5    -330.3231683632      1.18e-05  
    6    -330.3231795070      2.48e-06  Convergence criterion met
 ---------------------------------------
 SCF time:   CPU 415.93s  wall 69.00s 
 SCF   energy in the final basis set =     -330.3231795070
 Total energy in the final basis set =     -330.3231795070
 
 Components of the MP2 correlation energy:
        aaaa  correlation energy =        -0.0278557864 au
        abab  correlation energy =        -0.2680627135 au
        bbbb  correlation energy =        -0.0278557864 au
        non-Brillouin singles    =        -0.0000000000 au

 Total  MP2   correlation energy =                    -0.32377429 au
        MP2         total energy =                  -330.64695379 au
 
 --------------------------------------------------------------
 
                    Orbital Energies (a.u.)
 --------------------------------------------------------------
 
 Alpha MOs
 -- Occupied --
-68.766 -11.208  -6.115  -4.221  -4.221  -4.220  -0.950  -0.699
 -0.565  -0.565  -0.469  -0.469  -0.455
 -- Virtual --
  0.019   0.034   0.037   0.038   0.043   0.053   0.054   0.061
  0.064   0.068   0.072   0.074   0.077   0.086   0.087   0.088
  0.102   0.105   0.113   0.122   0.126   0.128   0.143   0.145
  0.149   0.156   0.160   0.165   0.168   0.177   0.187   0.193
  0.198   0.202   0.206   0.210   0.215   0.223   0.239   0.239
  0.243   0.249   0.255   0.262   0.271   0.275   0.289   0.292
  0.295   0.299   0.305   0.306   0.310   0.314   0.320   0.329
  0.333   0.338   0.340   0.343   0.349   0.355   0.360   0.362
  0.366   0.380   0.387   0.391   0.406   0.412   0.418   0.423
  0.426   0.429   0.438   0.439   0.441   0.452   0.455   0.462
  0.471   0.473   0.480   0.482   0.491   0.493   0.504   0.510
  0.512   0.517   0.524   0.529   0.541   0.547   0.552   0.560
  0.571   0.584   0.593   0.598   0.608   0.620   0.624   0.634
  0.647   0.649   0.656   0.659   0.665   0.671   0.685   0.686
  0.694   0.700   0.706   0.712   0.717   0.737   0.744   0.761
  0.765   0.783   0.795   0.799   0.809   0.814   0.817   0.832
  0.843   0.844   0.852   0.862   0.870   0.900   0.900   0.913
  0.917   0.923   0.931   0.938   0.944   0.955   0.958   0.967
  0.984   0.998   1.005   1.009   1.019   1.021   1.031   1.039
  1.045   1.048   1.060   1.062   1.073   1.075   1.079   1.098
  1.103   1.107   1.111   1.123   1.136   1.138   1.141   1.148
  1.155   1.160   1.161   1.166   1.169   1.177   1.183   1.188
  1.191   1.197   1.202   1.212   1.219   1.223   1.233   1.239
  1.253   1.254   1.260   1.280   1.282   1.287   1.297   1.312
  1.315   1.324   1.340   1.343   1.356   1.357   1.362   1.364
  1.382   1.391   1.396   1.403   1.407   1.418   1.423   1.428
  1.437   1.446   1.449   1.459   1.465   1.471   1.480   1.491
  1.497   1.513   1.534   1.544   1.546   1.555   1.569   1.580
  1.606   1.608   1.622   1.627   1.642   1.656   1.664   1.676
  1.680   1.697   1.707   1.715   1.738   1.749   1.771   1.790
  1.793   1.806   1.816   1.820   1.842   1.855   1.869   1.898
  1.911   1.916   1.927   1.935   1.948   1.964   1.984   2.009
  2.022   2.029   2.033   2.047   2.059   2.065   2.074   2.087
  2.092   2.108   2.123   2.135   2.155   2.173   2.177   2.185
  2.198   2.206   2.247   2.280   2.287   2.301   2.315   2.333
  2.372   2.375   2.385   2.417   2.454   2.462   2.492   2.502
  2.510   2.553   2.569   2.583   2.693   2.709   2.785   2.793
  2.808   2.820   2.999   3.007   3.108   3.112   3.158   3.214
  3.337   3.429   3.439   3.459   3.577   3.586   3.620   3.666
  3.691   3.697   3.717   3.721   3.770   3.780   3.852   3.888
  3.936   3.955   3.958   3.977   3.993   4.022   4.060   4.069
  4.084   4.100   4.106   4.115   4.130   4.133   4.136   4.144
  4.151   4.168   4.180   4.193   4.200   4.216   4.220   4.233
  4.244   4.255   4.276   4.294   4.303   4.334   4.337   4.339
  4.364   4.368   4.374   4.386   4.403   4.424   4.439   4.446
  4.488   4.501   4.510   4.528   4.536   4.545   4.553   4.564
  4.582   4.584   4.602   4.609   4.614   4.635   4.654   4.658
  4.661   4.666   4.728   4.743   4.776   4.782   4.791   4.806
  4.820   4.842   4.874   4.888   4.901   4.904   4.918   4.934
  4.952   5.005   5.011   5.038   5.050   5.055   5.065   5.167
  5.168   5.179   5.181   5.224   5.247   5.253   5.269   5.301
  5.307   5.347   5.349   5.350   5.362   5.404   5.472   5.479
  5.496   5.519   5.574   5.593   5.613   5.627   5.651   5.667
  5.678   5.771   5.955   6.076   6.124   6.141   6.152   6.157
  6.161   6.197   6.203   6.223   6.716   6.718   6.775   6.796
  7.106   7.480   7.815   7.819   8.187   8.223   9.157  10.395
 15.274  17.418  20.453  20.466  20.859  52.305 107.010
 --------------------------------------------------------------
 
          Ground-State Mulliken Net Atomic Charges

     Atom                 Charge (a.u.)
  ----------------------------------------
      1 GH                    0.000394
      2 GH                   -0.000066
      3 GH                    0.000104
      4 GH                    0.000101
      5 GH                    0.000935
      6 GH                    0.001801
      7 GH                   -0.000611
      8 GH                   -0.000878
      9 Si                    1.303978
     10 H                    -0.381082
     11 H                    -0.396145
     12 H                    -0.392166
     13 C                    -1.075654
     14 H                     0.311738
     15 H                     0.307421
     16 H                     0.320128
  ----------------------------------------
  Sum of atomic charges =    -0.000003

 -----------------------------------------------------------------
                    Cartesian Multipole Moments
 -----------------------------------------------------------------
    Charge (ESU x 10^10)
                -0.0000
    Dipole Moment (Debye)
         X       0.6886      Y       0.1706      Z      -0.0100
       Tot       0.7095
    Quadrupole Moments (Debye-Ang)
        XX     -27.7718     XY      -0.5837     YY     -23.2912
        XZ       0.0361     YZ       0.0024     ZZ     -23.2814
    Octopole Moments (Debye-Ang^2)
       XXX     233.1654    XXY       0.1948    XYY      72.4967
       YYY      -0.0495    XXZ      -0.0224    XYZ      -0.4290
       YYZ       1.7331    XZZ      72.8104    YZZ       0.1561
       ZZZ      -2.2318
    Hexadecapole Moments (Debye-Ang^3)
      XXXX   -1542.3784   XXXY      -4.3615   XXYY    -264.4224
      XYYY     -13.5127   YYYY     -63.7953   XXXZ       0.2742
      XXYZ       2.5319   XYYZ      -4.8170   YYYZ       0.4704
      XXZZ    -265.2129   XYZZ      -5.0039   YYZZ     -20.1293
      XZZZ       7.2812   YZZZ       0.0774   ZZZZ     -57.1120
 -----------------------------------------------------------------
Archival summary:
1\1\mm2.localdomain\SP\MP2\BasisUnspecified\i116h8\xuedong\WedJul318:08:432019WedJul318:08:432019\0\\#,MP2,BasisUnspecified,\\0,1\Si\H,1,1.48089\H,1,1.48091,2,108.381\H,1,1.48092,2,108.378,3,117.417,0\C,1,1.87808,2,110.567,3,-121.294,0\H,5,1.08851,1,110.927,2,-179.937,0\H,5,1.08869,1,110.845,2,-59.996,0\H,5,1.08875,1,110.826,2,59.9946,0\Gh,6,2.74011,5,117.884,1,-170.98,0\Gh,9,1.08863,6,101.898,5,-90.9412,0\Gh,10,1.08858,9,107.96,6,52.8192,0\Gh,10,1.08878,9,108.118,6,-63.8822,0\Gh,10,1.87817,9,110.862,6,174.48,0\Gh,13,1.48088,10,110.546,9,60.0552,0\Gh,13,1.48088,10,110.544,9,-179.931,0\Gh,13,1.48091,10,110.522,9,-59.9389,0\\HF=-330.32318\MP2=-330.646954\\@

 Total job time:  427.92s(wall), 2559.15s(cpu) 
 Wed Jul  3 18:08:43 2019

        *************************************************************
        *                                                           *
        *  Thank you very much for using Q-Chem.  Have a nice day.  *
        *                                                           *
        *************************************************************


