
Running Job 1 of 3 ../qm_inp/SiH3CH3_SiH3CH3_con2.095.qcinp
qchem ../qm_inp/SiH3CH3_SiH3CH3_con2.095.qcinp_33861.0 /scratch/xuedong/qchem33861/ 1
/home/qwang/software/qchem5.1.2/exe/qcprog.exe_s ../qm_inp/SiH3CH3_SiH3CH3_con2.095.qcinp_33861.0 /scratch/xuedong/qchem33861/
Check license passed

                  Welcome to Q-Chem
     A Quantum Leap Into The Future Of Chemistry


 Q-Chem 5.1, Q-Chem, Inc., Pleasanton, CA (2018)

 Yihan Shao,  Zhengting Gan,  E. Epifanovsky,  A. T. B. Gilbert,  M. Wormit,  
 J. Kussmann,  A. W. Lange,  A. Behn,  Jia Deng,  Xintian Feng,  D. Ghosh,  
 M. Goldey,  P. R. Horn,  L. D. Jacobson,  I. Kaliman,  T. Kus,  A. Landau,  
 Jie Liu,  E. I. Proynov,  R. M. Richard,  R. P. Steele,  E. J. Sundstrom,  
 H. L. Woodcock III,  P. M. Zimmerman,  D. Zuev,  B. Albrecht,  E. Alguire,  
 S. A. Baeppler,  D. Barton,  Z. Benda,  Y. A. Bernard,  E. J. Berquist,  
 K. B. Bravaya,  H. Burton,  D. Casanova,  Chun-Min Chang,  Yunqing Chen,  
 A. Chien,  K. D. Closser,  M. P. Coons,  S. Coriani,  S. Dasgupta,  
 A. L. Dempwolff,  M. Diedenhofen,  Hainam Do,  R. G. Edgar,  Po-Tung Fang,  
 S. Faraji,  S. Fatehi,  Qingguo Feng,  K. D. Fenk,  J. Fosso-Tande,  
 J. Gayvert,  Qinghui Ge,  A. Ghysels,  G. Gidofalvi,  J. Gomes,  
 J. Gonthier,  A. Gunina,  D. Hait,  M. W. D. Hanson-Heine,  
 P. H. P. Harbach,  A. W. Hauser,  J. E. Herr,  E. G. Hohenstein,  
 Z. C. Holden,  Kerwin Hui,  B. C. Huynh,  T.-C. Jagau,  Hyunjun Ji,  
 B. Kaduk,  K. Khistyaev,  Jaehoon Kim,  P. Klunzinger,  K. Koh,  
 D. Kosenkov,  L. Koulias,  T. Kowalczyk,  C. M. Krauter,  A. Kunitsa,  
 Ka Un Lao,  A. Laurent,  K. V. Lawler,  Joonho Lee,  D. Lefrancois,  
 S. Lehtola,  D. S. Levine,  Yi-Pei Li,  You-Sheng Lin,  Fenglai Liu,  
 E. Livshits,  A. Luenser,  P. Manohar,  E. Mansoor,  S. F. Manzer,  
 Shan-Ping Mao,  Yuezhi Mao,  N. Mardirossian,  A. V. Marenich,  
 T. Markovich,  L. A. Martinez-Martinez,  S. A. Maurer,  N. J. Mayhall,  
 S. C. McKenzie,  J.-M. Mewes,  A. F. Morrison,  J. W. Mullinax,  K. Nanda,  
 T. S. Nguyen-Beck,  R. Olivares-Amaya,  J. A. Parkhill,  T. M. Perrine,  
 F. Plasser,  P. Pokhilko,  S. Prager,  A. Prociuk,  E. Ramos,  D. R. Rehn,  
 F. Rob,  M. Schneider,  N. Sergueev,  S. M. Sharada,  S. Sharma,  
 D. W. Small,  T. Stauch,  T. Stein,  Yu-Chuan Su,  A. J. W. Thom,  
 A. Tkatchenko,  T. Tsuchimochi,  N. M. Tubman,  L. Vogt,  M. L. Vidal,  
 O. Vydrov,  M. A. Watson,  J. Wenzel,  M. de Wergifosse,  T. A. Wesolowski,  
 A. White,  J. Witte,  A. Yamada,  Jun Yang,  K. Yao,  S. Yeganeh,  
 S. R. Yost,  Zhi-Qiang You,  A. Zech,  Igor Ying Zhang,  Xing Zhang,  
 Yan Zhao,  Ying Zhu,  B. R. Brooks,  G. K. L. Chan,  C. J. Cramer,  
 M. S. Gordon,  W. J. Hehre,  A. Klamt,  M. W. Schmidt,  C. D. Sherrill,  
 D. G. Truhlar,  A. Aspuru-Guzik,  R. Baer,  A. T. Bell,  N. A. Besley,  
 Jeng-Da Chai,  A. E. DePrince, III,  R. A. DiStasio Jr.,  A. Dreuw,  
 B. D. Dunietz,  T. R. Furlani,  Chao-Ping Hsu,  Yousung Jung,  Jing Kong,  
 D. S. Lambrecht,  WanZhen Liang,  C. Ochsenfeld,  V. A. Rassolov,  
 L. V. Slipchenko,  J. E. Subotnik,  T. Van Voorhis,  J. M. Herbert,  
 A. I. Krylov,  P. M. W. Gill,  M. Head-Gordon

 Contributors to earlier versions of Q-Chem not listed above: 
 R. D. Adamson,  B. Austin,  J. Baker,  G. J. O. Beran,  K. Brandhorst,  
 S. T. Brown,  E. F. C. Byrd,  A. K. Chakraborty,  C.-L. Cheng,  
 Siu Hung Chien,  D. M. Chipman,  D. L. Crittenden,  H. Dachsel,  
 R. J. Doerksen,  A. D. Dutoi,  L. Fusti-Molnar,  W. A. Goddard III,  
 A. Golubeva-Zadorozhnaya,  S. R. Gwaltney,  G. Hawkins,  A. Heyden,  
 S. Hirata,  G. Kedziora,  F. J. Keil,  C. Kelley,  Jihan Kim,  R. A. King,  
 R. Z. Khaliullin,  P. P. Korambath,  W. Kurlancheek,  A. M. Lee,  M. S. Lee,  
 S. V. Levchenko,  Ching Yeh Lin,  D. Liotard,  R. C. Lochan,  I. Lotan,  
 P. E. Maslen,  N. Nair,  D. P. O'Neill,  D. Neuhauser,  E. Neuscamman,  
 C. M. Oana,  R. Olson,  B. Peters,  R. Peverati,  P. A. Pieniazek,  
 Y. M. Rhee,  J. Ritchie,  M. A. Rohrdanz,  E. Rosta,  N. J. Russ,  
 H. F. Schaefer III,  N. E. Schultz,  N. Shenvi,  A. C. Simmonett,  A. Sodt,  
 D. Stuck,  K. S. Thanthiriwatte,  V. Vanovschi,  Tao Wang,  A. Warshel,  
 C. F. Williams,  Q. Wu,  X. Xu,  W. Zhang

 Please cite Q-Chem as follows:
 Y. Shao et al., Mol. Phys. 113, 184-215 (2015)
 DOI: 10.1080/00268976.2014.952696

 Q-Chem 5.1.2 for Intel X86 EM64T Linux

 Parts of Q-Chem use Armadillo 8.300.2 (Tropical Shenanigans).
 http://arma.sourceforge.net/

 Q-Chem begins on Wed Jul  3 16:32:29 2019  

Host: 
0

     Scratch files written to /scratch/xuedong/qchem33861//
 Dec218 |scratch|qcdevops|jenkins|workspace|build_RNUM 6581   
Processing $rem in /home/qwang/software/qchem5.1.2/config/preferences.
 MEM_TOTAL  4000 
Core orbitals will be frozen
Input Ideriv = 1
Curr. Ideriv = -1
Max.  Ideriv = 1

Checking the input file for inconsistencies... 	...done.

--------------------------------------------------------------
User input:
--------------------------------------------------------------
$molecule
0 1
Si     2.014998435     0.321073490    -0.133289128
H     1.503542539     1.072357510     1.035552051
H     1.215154919    -0.917779499    -0.277040965
H     1.816801357     1.147049434    -1.346132733
C     3.832693717    -0.093902041     0.092465048
H     4.212738567    -0.647371106    -0.764407842
H     3.983063110    -0.702802282     0.982191073
H     4.425687573     0.812791426     0.199197617
Si    -1.806293264    -0.289473842    -0.012102735
H    -1.576523963    -1.459109141    -0.890425996
H    -1.283877833    -0.604998329     1.336897230
H    -1.039961261     0.857933339    -0.552118095
C    -3.636440637     0.124622901     0.068965178
H    -3.810562618     0.986298183     0.710967592
H    -4.205190038    -0.713964991     0.466994564
H    -4.024786758     0.356608535    -0.921189992
$end

$rem
BASIS = aug-cc-pVTZ
JOB_TYPE  =  SP
METHOD  =  MP2
SCF_MAX_CYCLES  =  200
$end

--------------------------------------------------------------
 ----------------------------------------------------------------
             Standard Nuclear Orientation (Angstroms)
    I     Atom           X                Y                Z
 ----------------------------------------------------------------
    1      Si     -1.9225543429     0.2574509186     0.0462572284
    2      H      -1.4261208116     0.7781936219    -1.2478004597
    3      H      -1.0841056257    -0.9006456865     0.4348276480
    4      H      -1.7613350009     1.3141179377     1.0709381966
    5      C      -3.7238797907    -0.2547298295    -0.0954582957
    6      H      -4.0928210442    -0.6393051633     0.8537400016
    7      H      -3.8470233602    -1.0329675196    -0.8465672201
    8      H      -4.3451111995     0.5923022919    -0.3813511422
    9      Si      1.9174259567    -0.2367105296     0.0552125088
   10      H       1.7185144495    -1.2155191021     1.1482177265
   11      H       1.4167149920    -0.8313071003    -1.2049533287
   12      H       1.1097833261     0.9688061030     0.3549917554
   13      C       3.7337635625     0.2140592615    -0.1035698050
   14      H       3.8851078690     0.9363199250    -0.9038224466
   15      H       4.3327279260    -0.6673748223    -0.3259401560
   16      H       4.1061632540     0.6510374756     0.8213117090
 ----------------------------------------------------------------
 Molecular Point Group                 C1    NOp =  1
 Largest Abelian Subgroup              C1    NOp =  1
 Nuclear Repulsion Energy =   200.0378002642 hartrees
 There are       26 alpha and       26 beta electrons
 Requested basis set is aug-cc-pVTZ
 There are 168 shells and 468 basis functions

 Total QAlloc Memory Limit   4000 MB
 Mega-Array Size       188 MB
 MEM_STATIC part       192 MB
 A cutoff of  1.0D-08 yielded  11302 shell pairs
 There are     83666 function pairs (    105986 Cartesian)
 
 -------------------------------------------------------
 OpenMP Integral Computing Module                       
 Release: version 1.0, May 2013, Q-Chem Inc. Pittsburgh 
 -------------------------------------------------------
 Integral Job Info:
 Integral job number is                      11
 Integral operator is                         1
 short-range coefficients                     0
 long-range coefficients              100000000
 Omega coefficients                           0
 if combine SR and LR in K                    0
 Integral screening is                        0
 Integral computing path is                   2
 max size of driver memory is            800000
 size of driver memory is                776718
 size of scratch memory is             29531563
 max col of scratch BK array              10000
 max len of scratch array in speh3          662
 max len of scratch index in speh4           32
 max int batch size is                      520
 min int batch size is                       52
 fixed nKL is                                31
 max L of basis functions is                  3
 order of int derivative is                   0
 number of shells is                        168
 number of basis is                         528
 number of cartesian basis is               528
 number of contracted shell pairs         11302
 number of primitive shell pairs          31204
 maxK2 (contraction) of shell pair          169
 max number of K2 of shell pair               1
 max number of CS2 of shell pair           2131
 max number of PS2 of shell pair           3068
 mem total for path MDJ                  774300
 -------------------------------------------------------
 Smallest overlap matrix eigenvalue = 1.02E-05

 Q-Chem warning in module stvman/mkSTV.C, line 306:

 Overlap eigenvalue is smaller than square root of threshold
 Use THRESH >= 12 to get rid of this warning


 Scale SEOQF with 1.000000e-01/1.000000e-01/1.000000e-01

 Standard Electronic Orientation quadrupole field applied
 Nucleus-field energy     =     0.0000000136 hartrees
 Guess from superposition of atomic densities
 Warning:  Energy on first SCF cycle will be non-variational
 SAD guess density has 52.000000 electrons

 -----------------------------------------------------------------------
  General SCF calculation program by
  Eric Jon Sundstrom, Paul Horn, Yuezhi Mao, Dmitri Zuev, Alec White,
  David Stuck, Shaama M.S., Shane Yost, Joonho Lee, David Small,
  Daniel Levine, Susi Lehtola, Hugh Burton, Evgeny Epifanovsky
 -----------------------------------------------------------------------
 Hartree-Fock
 using 6 threads for integral computing
 -------------------------------------------------------
 OpenMP Integral computing Module                
 Release: version 1.0, May 2013, Q-Chem Inc. Pittsburgh 
 -------------------------------------------------------
 A restricted SCF calculation will be
 performed using DIIS
 SCF converges when DIIS error is below 1.0e-05
 ---------------------------------------
  Cycle       Energy         DIIS error
 ---------------------------------------
    1    -660.9872810978      1.48e-02  
    2    -660.5858658521      1.12e-03  
    3    -660.6381053506      3.34e-04  
    4    -660.6432402305      1.36e-04  
    5    -660.6440001055      1.68e-05  
    6    -660.6440225240      3.46e-06  Convergence criterion met
 ---------------------------------------
 SCF time:   CPU 553.54s  wall 92.00s 
 SCF   energy in the final basis set =     -660.6440225240
 Total energy in the final basis set =     -660.6440225240
 
 Components of the MP2 correlation energy:
        aaaa  correlation energy =        -0.0566382527 au
        abab  correlation energy =        -0.5383656505 au
        bbbb  correlation energy =        -0.0566382527 au
        non-Brillouin singles    =        -0.0000000000 au

 Total  MP2   correlation energy =                    -0.65164216 au
        MP2         total energy =                  -661.29566468 au
 
 --------------------------------------------------------------
 
                    Orbital Energies (a.u.)
 --------------------------------------------------------------
 
 Alpha MOs
 -- Occupied --
-68.763 -68.763 -11.206 -11.206  -6.112  -6.112  -4.218  -4.218
 -4.218  -4.218  -4.218  -4.218  -0.948  -0.947  -0.708  -0.687
 -0.563  -0.563  -0.563  -0.563  -0.473  -0.471  -0.469  -0.462
 -0.454  -0.442
 -- Virtual --
  0.028   0.032   0.042   0.043   0.049   0.051   0.051   0.066
  0.068   0.071   0.074   0.078   0.091   0.094   0.103   0.107
  0.108   0.122   0.129   0.131   0.138   0.144   0.146   0.150
  0.151   0.157   0.160   0.165   0.171   0.177   0.178   0.183
  0.200   0.204   0.213   0.214   0.217   0.229   0.233   0.249
  0.251   0.258   0.265   0.265   0.272   0.296   0.297   0.307
  0.310   0.313   0.314   0.321   0.327   0.331   0.340   0.342
  0.344   0.349   0.356   0.358   0.362   0.363   0.366   0.368
  0.372   0.374   0.381   0.385   0.392   0.394   0.398   0.403
  0.418   0.425   0.429   0.433   0.438   0.442   0.446   0.454
  0.460   0.463   0.466   0.474   0.476   0.484   0.491   0.492
  0.505   0.509   0.511   0.519   0.531   0.534   0.556   0.561
  0.578   0.585   0.607   0.608   0.617   0.629   0.630   0.640
  0.646   0.664   0.666   0.673   0.674   0.679   0.684   0.687
  0.688   0.694   0.696   0.704   0.708   0.710   0.715   0.723
  0.741   0.745   0.747   0.768   0.774   0.779   0.803   0.833
  0.836   0.845   0.846   0.861   0.871   0.879   0.898   0.900
  0.902   0.904   0.907   0.915   0.932   0.950   0.951   0.957
  0.960   0.967   0.969   0.971   0.995   0.996   1.014   1.020
  1.026   1.043   1.045   1.052   1.055   1.058   1.063   1.090
  1.093   1.110   1.112   1.116   1.120   1.126   1.134   1.146
  1.153   1.153   1.158   1.160   1.169   1.173   1.180   1.189
  1.193   1.209   1.213   1.215   1.227   1.234   1.237   1.250
  1.251   1.253   1.261   1.268   1.278   1.284   1.292   1.295
  1.307   1.313   1.314   1.319   1.333   1.342   1.364   1.370
  1.378   1.383   1.390   1.408   1.420   1.422   1.425   1.426
  1.433   1.442   1.447   1.456   1.458   1.460   1.466   1.473
  1.499   1.502   1.511   1.532   1.537   1.542   1.557   1.569
  1.571   1.588   1.595   1.600   1.615   1.635   1.637   1.646
  1.657   1.663   1.671   1.675   1.688   1.698   1.708   1.721
  1.742   1.758   1.759   1.763   1.789   1.820   1.843   1.856
  1.865   1.869   1.877   1.888   1.916   1.921   1.924   1.937
  1.976   1.998   2.008   2.009   2.022   2.034   2.037   2.043
  2.047   2.063   2.065   2.070   2.111   2.133   2.138   2.150
  2.160   2.171   2.177   2.196   2.196   2.211   2.230   2.241
  2.243   2.260   2.290   2.292   2.312   2.318   2.361   2.366
  2.374   2.384   2.394   2.440   2.754   2.758   3.097   3.106
  3.131   3.156   3.198   3.201   3.362   3.383   3.418   3.420
  3.421   3.427   3.483   3.561   3.566   3.573   3.574   3.616
  3.616   3.622   3.646   3.656   3.663   3.667   3.671   3.671
  3.740   3.767   3.801   3.834   3.838   3.840   3.840   3.859
  3.946   3.950   3.953   3.954   4.013   4.040   4.052   4.060
  4.086   4.087   4.092   4.107   4.111   4.116   4.119   4.124
  4.126   4.133   4.150   4.153   4.172   4.182   4.185   4.186
  4.195   4.205   4.216   4.220   4.229   4.232   4.247   4.253
  4.266   4.283   4.288   4.329   4.348   4.350   4.355   4.367
  4.384   4.394   4.430   4.452   4.513   4.519   4.520   4.527
  4.546   4.548   4.573   4.580   4.598   4.608   4.617   4.626
  4.639   4.652   4.767   4.771   4.785   4.788   4.806   4.821
  4.823   4.831   4.848   4.859   4.871   4.876   4.900   4.907
  4.973   5.005   5.010   5.011   5.033   5.038   5.048   5.054
  5.117   5.126   5.166   5.172   5.175   5.176   5.247   5.249
  5.265   5.268   5.354   5.360   5.567   5.568   5.604   5.605
  5.606   5.608   5.624   5.632   5.952   5.953   6.105   6.110
  6.112   6.114   6.699   6.702   6.703   6.708   9.185   9.312
 17.051  17.104
 --------------------------------------------------------------
 
          Ground-State Mulliken Net Atomic Charges

     Atom                 Charge (a.u.)
  ----------------------------------------
      1 Si                    1.485205
      2 H                    -0.357195
      3 H                    -0.313180
      4 H                    -0.377435
      5 C                    -1.246083
      6 H                     0.270140
      7 H                     0.287375
      8 H                     0.251392
      9 Si                    1.499090
     10 H                    -0.375633
     11 H                    -0.355240
     12 H                    -0.317465
     13 C                    -1.255841
     14 H                     0.284379
     15 H                     0.251292
     16 H                     0.269195
  ----------------------------------------
  Sum of atomic charges =    -0.000002

 -----------------------------------------------------------------
                    Cartesian Multipole Moments
 -----------------------------------------------------------------
    Charge (ESU x 10^10)
                -0.0000
    Dipole Moment (Debye)
         X      -0.0016      Y      -0.0249      Z      -0.1091
       Tot       0.1119
    Quadrupole Moments (Debye-Ang)
        XX     -40.9805     XY       0.5398     YY     -46.6025
        XZ      -0.0082     YZ      -0.0031     ZZ     -46.5173
    Octopole Moments (Debye-Ang^2)
       XXX      -0.1660    XXY       0.0217    XYY       0.1893
       YYY      -0.5161    XXZ       0.0162    XYZ       1.1857
       YYZ      -2.5127    XZZ      -0.0243    YZZ       0.1282
       ZZZ       0.8106
    Hexadecapole Moments (Debye-Ang^3)
      XXXX   -2029.2662   XXXY     -16.8420   XXYY    -347.0619
      XYYY       3.1751   YYYY    -132.4451   XXXZ       0.6137
      XXYZ      -0.4352   XYYZ       0.6603   YYYZ      -0.0459
      XXZZ    -345.9473   XYZZ      11.4971   YYZZ     -41.8166
      XZZZ      -1.0097   YZZZ       0.0269   ZZZZ    -115.6062
 -----------------------------------------------------------------
Archival summary:
1\1\mm2.localdomain\SP\MP2\BasisUnspecified\i2212\xuedong\WedJul316:40:542019WedJul316:40:542019\0\\#,MP2,BasisUnspecified,\\0,1\Si\H,1,1.48063\H,1,1.48064,2,108.504\H,1,1.4817,2,108.336,3,-117.462,0\C,1,1.87816,2,110.577,3,121.399,0\H,5,1.08856,1,110.845,2,60.0131,0\H,5,1.08859,1,110.815,2,-179.959,0\H,5,1.08864,1,110.795,2,-59.9914,0\H,4,2.88347,1,83.8482,2,60.8028,0\Si,9,1.48161,4,85.2124,1,-152.952,0\H,10,1.48061,9,108.324,4,59.4319,0\H,10,1.48071,9,108.342,4,-58.0828,0\C,10,1.87808,9,110.451,4,-179.32,0\H,13,1.08857,10,110.826,9,-59.9862,0\H,13,1.08857,10,110.831,9,60.0438,0\H,13,1.08864,10,110.791,9,-179.971,0\\HF=-660.644023\MP2=-661.295665\\@

 Total job time:  505.23s(wall), 2997.06s(cpu) 
 Wed Jul  3 16:40:54 2019

        *************************************************************
        *                                                           *
        *  Thank you very much for using Q-Chem.  Have a nice day.  *
        *                                                           *
        *************************************************************



Running Job 2 of 3 ../qm_inp/SiH3CH3_SiH3CH3_con2.095.qcinp
qchem ../qm_inp/SiH3CH3_SiH3CH3_con2.095.qcinp_33861.1 /scratch/xuedong/qchem33861/ 1
/home/qwang/software/qchem5.1.2/exe/qcprog.exe_s ../qm_inp/SiH3CH3_SiH3CH3_con2.095.qcinp_33861.1 /scratch/xuedong/qchem33861/
Check license passed

                  Welcome to Q-Chem
     A Quantum Leap Into The Future Of Chemistry


 Q-Chem 5.1, Q-Chem, Inc., Pleasanton, CA (2018)

 Yihan Shao,  Zhengting Gan,  E. Epifanovsky,  A. T. B. Gilbert,  M. Wormit,  
 J. Kussmann,  A. W. Lange,  A. Behn,  Jia Deng,  Xintian Feng,  D. Ghosh,  
 M. Goldey,  P. R. Horn,  L. D. Jacobson,  I. Kaliman,  T. Kus,  A. Landau,  
 Jie Liu,  E. I. Proynov,  R. M. Richard,  R. P. Steele,  E. J. Sundstrom,  
 H. L. Woodcock III,  P. M. Zimmerman,  D. Zuev,  B. Albrecht,  E. Alguire,  
 S. A. Baeppler,  D. Barton,  Z. Benda,  Y. A. Bernard,  E. J. Berquist,  
 K. B. Bravaya,  H. Burton,  D. Casanova,  Chun-Min Chang,  Yunqing Chen,  
 A. Chien,  K. D. Closser,  M. P. Coons,  S. Coriani,  S. Dasgupta,  
 A. L. Dempwolff,  M. Diedenhofen,  Hainam Do,  R. G. Edgar,  Po-Tung Fang,  
 S. Faraji,  S. Fatehi,  Qingguo Feng,  K. D. Fenk,  J. Fosso-Tande,  
 J. Gayvert,  Qinghui Ge,  A. Ghysels,  G. Gidofalvi,  J. Gomes,  
 J. Gonthier,  A. Gunina,  D. Hait,  M. W. D. Hanson-Heine,  
 P. H. P. Harbach,  A. W. Hauser,  J. E. Herr,  E. G. Hohenstein,  
 Z. C. Holden,  Kerwin Hui,  B. C. Huynh,  T.-C. Jagau,  Hyunjun Ji,  
 B. Kaduk,  K. Khistyaev,  Jaehoon Kim,  P. Klunzinger,  K. Koh,  
 D. Kosenkov,  L. Koulias,  T. Kowalczyk,  C. M. Krauter,  A. Kunitsa,  
 Ka Un Lao,  A. Laurent,  K. V. Lawler,  Joonho Lee,  D. Lefrancois,  
 S. Lehtola,  D. S. Levine,  Yi-Pei Li,  You-Sheng Lin,  Fenglai Liu,  
 E. Livshits,  A. Luenser,  P. Manohar,  E. Mansoor,  S. F. Manzer,  
 Shan-Ping Mao,  Yuezhi Mao,  N. Mardirossian,  A. V. Marenich,  
 T. Markovich,  L. A. Martinez-Martinez,  S. A. Maurer,  N. J. Mayhall,  
 S. C. McKenzie,  J.-M. Mewes,  A. F. Morrison,  J. W. Mullinax,  K. Nanda,  
 T. S. Nguyen-Beck,  R. Olivares-Amaya,  J. A. Parkhill,  T. M. Perrine,  
 F. Plasser,  P. Pokhilko,  S. Prager,  A. Prociuk,  E. Ramos,  D. R. Rehn,  
 F. Rob,  M. Schneider,  N. Sergueev,  S. M. Sharada,  S. Sharma,  
 D. W. Small,  T. Stauch,  T. Stein,  Yu-Chuan Su,  A. J. W. Thom,  
 A. Tkatchenko,  T. Tsuchimochi,  N. M. Tubman,  L. Vogt,  M. L. Vidal,  
 O. Vydrov,  M. A. Watson,  J. Wenzel,  M. de Wergifosse,  T. A. Wesolowski,  
 A. White,  J. Witte,  A. Yamada,  Jun Yang,  K. Yao,  S. Yeganeh,  
 S. R. Yost,  Zhi-Qiang You,  A. Zech,  Igor Ying Zhang,  Xing Zhang,  
 Yan Zhao,  Ying Zhu,  B. R. Brooks,  G. K. L. Chan,  C. J. Cramer,  
 M. S. Gordon,  W. J. Hehre,  A. Klamt,  M. W. Schmidt,  C. D. Sherrill,  
 D. G. Truhlar,  A. Aspuru-Guzik,  R. Baer,  A. T. Bell,  N. A. Besley,  
 Jeng-Da Chai,  A. E. DePrince, III,  R. A. DiStasio Jr.,  A. Dreuw,  
 B. D. Dunietz,  T. R. Furlani,  Chao-Ping Hsu,  Yousung Jung,  Jing Kong,  
 D. S. Lambrecht,  WanZhen Liang,  C. Ochsenfeld,  V. A. Rassolov,  
 L. V. Slipchenko,  J. E. Subotnik,  T. Van Voorhis,  J. M. Herbert,  
 A. I. Krylov,  P. M. W. Gill,  M. Head-Gordon

 Contributors to earlier versions of Q-Chem not listed above: 
 R. D. Adamson,  B. Austin,  J. Baker,  G. J. O. Beran,  K. Brandhorst,  
 S. T. Brown,  E. F. C. Byrd,  A. K. Chakraborty,  C.-L. Cheng,  
 Siu Hung Chien,  D. M. Chipman,  D. L. Crittenden,  H. Dachsel,  
 R. J. Doerksen,  A. D. Dutoi,  L. Fusti-Molnar,  W. A. Goddard III,  
 A. Golubeva-Zadorozhnaya,  S. R. Gwaltney,  G. Hawkins,  A. Heyden,  
 S. Hirata,  G. Kedziora,  F. J. Keil,  C. Kelley,  Jihan Kim,  R. A. King,  
 R. Z. Khaliullin,  P. P. Korambath,  W. Kurlancheek,  A. M. Lee,  M. S. Lee,  
 S. V. Levchenko,  Ching Yeh Lin,  D. Liotard,  R. C. Lochan,  I. Lotan,  
 P. E. Maslen,  N. Nair,  D. P. O'Neill,  D. Neuhauser,  E. Neuscamman,  
 C. M. Oana,  R. Olson,  B. Peters,  R. Peverati,  P. A. Pieniazek,  
 Y. M. Rhee,  J. Ritchie,  M. A. Rohrdanz,  E. Rosta,  N. J. Russ,  
 H. F. Schaefer III,  N. E. Schultz,  N. Shenvi,  A. C. Simmonett,  A. Sodt,  
 D. Stuck,  K. S. Thanthiriwatte,  V. Vanovschi,  Tao Wang,  A. Warshel,  
 C. F. Williams,  Q. Wu,  X. Xu,  W. Zhang

 Please cite Q-Chem as follows:
 Y. Shao et al., Mol. Phys. 113, 184-215 (2015)
 DOI: 10.1080/00268976.2014.952696

 Q-Chem 5.1.2 for Intel X86 EM64T Linux

 Parts of Q-Chem use Armadillo 8.300.2 (Tropical Shenanigans).
 http://arma.sourceforge.net/

 Q-Chem begins on Wed Jul  3 16:40:54 2019  

Host: 
0

     Scratch files written to /scratch/xuedong/qchem33861//
 Dec218 |scratch|qcdevops|jenkins|workspace|build_RNUM 6581   
Processing $rem in /home/qwang/software/qchem5.1.2/config/preferences.
 MEM_TOTAL  4000 
Core orbitals will be frozen
Input Ideriv = 1
Curr. Ideriv = -1
Max.  Ideriv = 1

Checking the input file for inconsistencies... 	...done.

--------------------------------------------------------------
User input:
--------------------------------------------------------------


$molecule
0 1
@Si     2.014998435     0.321073490    -0.133289128
@H     1.503542539     1.072357510     1.035552051
@H     1.215154919    -0.917779499    -0.277040965
@H     1.816801357     1.147049434    -1.346132733
@C     3.832693717    -0.093902041     0.092465048
@H     4.212738567    -0.647371106    -0.764407842
@H     3.983063110    -0.702802282     0.982191073
@H     4.425687573     0.812791426     0.199197617
Si    -1.806293264    -0.289473842    -0.012102735
H    -1.576523963    -1.459109141    -0.890425996
H    -1.283877833    -0.604998329     1.336897230
H    -1.039961261     0.857933339    -0.552118095
C    -3.636440637     0.124622901     0.068965178
H    -3.810562618     0.986298183     0.710967592
H    -4.205190038    -0.713964991     0.466994564
H    -4.024786758     0.356608535    -0.921189992
$end

$rem
BASIS = aug-cc-pVTZ
JOB_TYPE  =  SP
METHOD  =  MP2
SCF_MAX_CYCLES  =  200
$end

--------------------------------------------------------------
 ----------------------------------------------------------------
             Standard Nuclear Orientation (Angstroms)
    I     Atom           X                Y                Z
 ----------------------------------------------------------------
    1      GH      2.0149984350     0.3210734900    -0.1332891280
    2      GH      1.5035425390     1.0723575100     1.0355520510
    3      GH      1.2151549190    -0.9177794990    -0.2770409650
    4      GH      1.8168013570     1.1470494340    -1.3461327330
    5      GH      3.8326937170    -0.0939020410     0.0924650480
    6      GH      4.2127385670    -0.6473711060    -0.7644078420
    7      GH      3.9830631100    -0.7028022820     0.9821910730
    8      GH      4.4256875730     0.8127914260     0.1991976170
    9      Si     -1.8062932640    -0.2894738420    -0.0121027350
   10      H      -1.5765239630    -1.4591091410    -0.8904259960
   11      H      -1.2838778330    -0.6049983290     1.3368972300
   12      H      -1.0399612610     0.8579333390    -0.5521180950
   13      C      -3.6364406370     0.1246229010     0.0689651780
   14      H      -3.8105626180     0.9862981830     0.7109675920
   15      H      -4.2051900380    -0.7139649910     0.4669945640
   16      H      -4.0247867580     0.3566085350    -0.9211899920
 ----------------------------------------------------------------
 Nuclear Repulsion Energy =    62.8485298452 hartrees
 There are       13 alpha and       13 beta electrons
 Requested basis set is aug-cc-pVTZ
 There are 168 shells and 468 basis functions

 Total QAlloc Memory Limit   4000 MB
 Mega-Array Size       188 MB
 MEM_STATIC part       192 MB
 A cutoff of  1.0D-08 yielded  11302 shell pairs
 There are     83666 function pairs (    105986 Cartesian)
 
 -------------------------------------------------------
 OpenMP Integral Computing Module                       
 Release: version 1.0, May 2013, Q-Chem Inc. Pittsburgh 
 -------------------------------------------------------
 Integral Job Info:
 Integral job number is                      11
 Integral operator is                         1
 short-range coefficients                     0
 long-range coefficients              100000000
 Omega coefficients                           0
 if combine SR and LR in K                    0
 Integral screening is                        0
 Integral computing path is                   2
 max size of driver memory is            800000
 size of driver memory is                776718
 size of scratch memory is             29531563
 max col of scratch BK array              10000
 max len of scratch array in speh3          662
 max len of scratch index in speh4           32
 max int batch size is                      520
 min int batch size is                       52
 fixed nKL is                                31
 max L of basis functions is                  3
 order of int derivative is                   0
 number of shells is                        168
 number of basis is                         528
 number of cartesian basis is               528
 number of contracted shell pairs         11302
 number of primitive shell pairs          31204
 maxK2 (contraction) of shell pair          169
 max number of K2 of shell pair               1
 max number of CS2 of shell pair           2131
 max number of PS2 of shell pair           3068
 mem total for path MDJ                  774300
 -------------------------------------------------------
 Smallest overlap matrix eigenvalue = 1.02E-05

 Q-Chem warning in module stvman/mkSTV.C, line 306:

 Overlap eigenvalue is smaller than square root of threshold
 Use THRESH >= 12 to get rid of this warning


 Scale SEOQF with 1.000000e-01/1.000000e-01/1.000000e-01

 Standard Electronic Orientation quadrupole field applied
 Nucleus-field energy     =     0.0000000063 hartrees
 Guess from superposition of atomic densities
 Warning:  Energy on first SCF cycle will be non-variational
 SAD guess density has 26.000000 electrons

 -----------------------------------------------------------------------
  General SCF calculation program by
  Eric Jon Sundstrom, Paul Horn, Yuezhi Mao, Dmitri Zuev, Alec White,
  David Stuck, Shaama M.S., Shane Yost, Joonho Lee, David Small,
  Daniel Levine, Susi Lehtola, Hugh Burton, Evgeny Epifanovsky
 -----------------------------------------------------------------------
 Hartree-Fock
 using 6 threads for integral computing
 -------------------------------------------------------
 OpenMP Integral computing Module                
 Release: version 1.0, May 2013, Q-Chem Inc. Pittsburgh 
 -------------------------------------------------------
 A restricted SCF calculation will be
 performed using DIIS
 SCF converges when DIIS error is below 1.0e-05
 ---------------------------------------
  Cycle       Energy         DIIS error
 ---------------------------------------
    1    -330.4724693963      1.04e-02  
    2    -330.2951277302      7.86e-04  
    3    -330.3203958314      2.33e-04  
    4    -330.3228704218      9.50e-05  
    5    -330.3232372838      1.18e-05  
    6    -330.3232484241      2.48e-06  Convergence criterion met
 ---------------------------------------
 SCF time:   CPU 452.22s  wall 76.00s 
 SCF   energy in the final basis set =     -330.3232484241
 Total energy in the final basis set =     -330.3232484241
 
 Components of the MP2 correlation energy:
        aaaa  correlation energy =        -0.0278613350 au
        abab  correlation energy =        -0.2681940121 au
        bbbb  correlation energy =        -0.0278613350 au
        non-Brillouin singles    =        -0.0000000000 au

 Total  MP2   correlation energy =                    -0.32391668 au
        MP2         total energy =                  -330.64716511 au
 
 --------------------------------------------------------------
 
                    Orbital Energies (a.u.)
 --------------------------------------------------------------
 
 Alpha MOs
 -- Occupied --
-68.766 -11.208  -6.114  -4.221  -4.221  -4.220  -0.950  -0.699
 -0.565  -0.565  -0.469  -0.468  -0.455
 -- Virtual --
  0.023   0.030   0.040   0.040   0.046   0.050   0.050   0.064
  0.068   0.068   0.072   0.076   0.088   0.091   0.094   0.102
  0.106   0.108   0.121   0.126   0.127   0.130   0.142   0.144
  0.147   0.156   0.162   0.165   0.171   0.175   0.187   0.198
  0.207   0.211   0.211   0.214   0.219   0.228   0.233   0.250
  0.252   0.258   0.263   0.271   0.288   0.291   0.295   0.301
  0.307   0.312   0.315   0.322   0.322   0.333   0.337   0.340
  0.345   0.346   0.353   0.357   0.360   0.366   0.368   0.370
  0.377   0.380   0.386   0.396   0.400   0.417   0.418   0.432
  0.434   0.437   0.442   0.450   0.452   0.456   0.460   0.463
  0.468   0.474   0.484   0.487   0.489   0.493   0.498   0.503
  0.508   0.512   0.519   0.529   0.531   0.543   0.556   0.565
  0.569   0.582   0.591   0.607   0.612   0.619   0.631   0.635
  0.647   0.664   0.673   0.678   0.680   0.684   0.687   0.695
  0.704   0.705   0.715   0.720   0.725   0.739   0.744   0.751
  0.761   0.766   0.796   0.804   0.824   0.831   0.835   0.840
  0.844   0.856   0.868   0.881   0.895   0.897   0.908   0.918
  0.924   0.938   0.943   0.953   0.962   0.967   0.977   0.980
  0.988   1.007   1.015   1.022   1.034   1.037   1.044   1.049
  1.058   1.064   1.068   1.079   1.091   1.101   1.103   1.106
  1.116   1.131   1.136   1.141   1.148   1.152   1.156   1.165
  1.170   1.178   1.183   1.187   1.192   1.196   1.199   1.208
  1.217   1.218   1.225   1.230   1.237   1.240   1.249   1.257
  1.270   1.271   1.272   1.284   1.291   1.301   1.312   1.322
  1.325   1.338   1.345   1.350   1.362   1.366   1.373   1.383
  1.398   1.409   1.412   1.421   1.429   1.440   1.444   1.448
  1.453   1.461   1.470   1.472   1.477   1.489   1.504   1.516
  1.527   1.540   1.553   1.567   1.576   1.588   1.600   1.619
  1.624   1.631   1.641   1.651   1.657   1.671   1.684   1.693
  1.705   1.712   1.720   1.738   1.760   1.761   1.769   1.793
  1.800   1.810   1.846   1.851   1.852   1.861   1.874   1.879
  1.900   1.915   1.918   1.934   1.947   1.973   1.995   2.015
  2.027   2.036   2.050   2.050   2.060   2.073   2.083   2.086
  2.097   2.125   2.133   2.143   2.163   2.170   2.188   2.191
  2.220   2.229   2.243   2.285   2.294   2.306   2.312   2.362
  2.370   2.383   2.385   2.405   2.416   2.487   2.497   2.519
  2.529   2.553   2.563   2.605   2.703   2.724   2.752   2.785
  2.794   2.809   3.010   3.025   3.118   3.137   3.163   3.215
  3.366   3.417   3.421   3.541   3.568   3.576   3.614   3.649
  3.664   3.666   3.752   3.781   3.802   3.832   3.847   3.861
  3.900   3.948   3.949   3.980   4.027   4.077   4.081   4.086
  4.091   4.114   4.116   4.119   4.125   4.128   4.133   4.152
  4.160   4.179   4.183   4.190   4.203   4.218   4.218   4.241
  4.261   4.279   4.298   4.324   4.334   4.346   4.350   4.372
  4.378   4.399   4.413   4.429   4.436   4.444   4.477   4.487
  4.499   4.503   4.517   4.533   4.544   4.551   4.560   4.578
  4.590   4.605   4.609   4.621   4.630   4.644   4.662   4.691
  4.713   4.718   4.752   4.774   4.782   4.788   4.803   4.820
  4.846   4.865   4.871   4.882   4.909   4.913   4.931   4.939
  4.986   5.004   5.008   5.027   5.042   5.068   5.107   5.166
  5.170   5.184   5.192   5.240   5.246   5.260   5.296   5.300
  5.322   5.352   5.356   5.361   5.379   5.392   5.465   5.473
  5.510   5.518   5.529   5.565   5.603   5.605   5.627   5.651
  5.659   5.767   5.950   6.075   6.105   6.111   6.142   6.160
  6.177   6.195   6.216   6.244   6.700   6.702   6.743   6.743
  7.083   7.513   7.808   7.809   8.152   8.153   9.247  10.295
 15.361  17.076  20.494  20.602  21.155  51.425 107.023
 --------------------------------------------------------------
 
          Ground-State Mulliken Net Atomic Charges

     Atom                 Charge (a.u.)
  ----------------------------------------
      1 GH                    0.034134
      2 GH                   -0.002999
      3 GH                    0.006275
      4 GH                    0.000256
      5 GH                   -0.011255
      6 GH                   -0.000728
      7 GH                   -0.001366
      8 GH                   -0.000536
      9 Si                    1.477853
     10 H                    -0.377211
     11 H                    -0.358018
     12 H                    -0.319584
     13 C                    -1.251452
     14 H                     0.284820
     15 H                     0.251429
     16 H                     0.268383
  ----------------------------------------
  Sum of atomic charges =    -0.000001

 -----------------------------------------------------------------
                    Cartesian Multipole Moments
 -----------------------------------------------------------------
    Charge (ESU x 10^10)
                -0.0000
    Dipole Moment (Debye)
         X      -0.6896      Y       0.1482      Z       0.0332
       Tot       0.7061
    Quadrupole Moments (Debye-Ang)
        XX     -20.3168     XY      -0.1779     YY     -23.3397
        XZ      -0.0707     YZ      -0.0047     ZZ     -23.2759
    Octopole Moments (Debye-Ang^2)
       XXX     157.7245    XXY       2.5750    XYY      53.6272
       YYY      11.7224    XXZ      -0.2983    XYZ       0.4990
       YYZ       1.4423    XZZ      53.3580    YZZ       4.9763
       ZZZ      -2.3930
    Hexadecapole Moments (Debye-Ang^3)
      XXXX    -944.3390   XXXY      -4.6299   XXYY    -162.0415
      XYYY     -14.1966   YYYY     -66.8353   XXXZ       5.3861
      XXYZ      -2.5873   XYYZ      -2.9743   YYYZ      -1.1017
      XXZZ    -159.9941   XYZZ      -7.3607   YYZZ     -20.9152
      XZZZ       8.3515   YZZZ      -0.1717   ZZZZ     -57.4401
 -----------------------------------------------------------------
Archival summary:
1\1\mm2.localdomain\SP\MP2\BasisUnspecified\i116h8\xuedong\WedJul316:48:312019WedJul316:48:312019\0\\#,MP2,BasisUnspecified,\\0,1\Si\H,1,1.48063\H,1,1.48064,2,108.504\H,1,1.4817,2,108.336,3,-117.462,0\C,1,1.87816,2,110.577,3,121.399,0\H,5,1.08856,1,110.845,2,60.0131,0\H,5,1.08859,1,110.815,2,-179.959,0\H,5,1.08864,1,110.795,2,-59.9914,0\Gh,4,2.88347,1,83.8482,2,60.8028,0\Gh,9,1.48161,4,85.2124,1,-152.952,0\Gh,10,1.48061,9,108.324,4,59.4319,0\Gh,10,1.48071,9,108.342,4,-58.0828,0\Gh,10,1.87808,9,110.451,4,-179.32,0\Gh,13,1.08857,10,110.826,9,-59.9862,0\Gh,13,1.08857,10,110.831,9,60.0438,0\Gh,13,1.08864,10,110.791,9,-179.971,0\\HF=-330.323248\MP2=-330.647165\\@

 Total job time:  456.74s(wall), 2732.27s(cpu) 
 Wed Jul  3 16:48:31 2019

        *************************************************************
        *                                                           *
        *  Thank you very much for using Q-Chem.  Have a nice day.  *
        *                                                           *
        *************************************************************



Running Job 3 of 3 ../qm_inp/SiH3CH3_SiH3CH3_con2.095.qcinp
qchem ../qm_inp/SiH3CH3_SiH3CH3_con2.095.qcinp_33861.2 /scratch/xuedong/qchem33861/ 1
/home/qwang/software/qchem5.1.2/exe/qcprog.exe_s ../qm_inp/SiH3CH3_SiH3CH3_con2.095.qcinp_33861.2 /scratch/xuedong/qchem33861/
Check license passed

                  Welcome to Q-Chem
     A Quantum Leap Into The Future Of Chemistry


 Q-Chem 5.1, Q-Chem, Inc., Pleasanton, CA (2018)

 Yihan Shao,  Zhengting Gan,  E. Epifanovsky,  A. T. B. Gilbert,  M. Wormit,  
 J. Kussmann,  A. W. Lange,  A. Behn,  Jia Deng,  Xintian Feng,  D. Ghosh,  
 M. Goldey,  P. R. Horn,  L. D. Jacobson,  I. Kaliman,  T. Kus,  A. Landau,  
 Jie Liu,  E. I. Proynov,  R. M. Richard,  R. P. Steele,  E. J. Sundstrom,  
 H. L. Woodcock III,  P. M. Zimmerman,  D. Zuev,  B. Albrecht,  E. Alguire,  
 S. A. Baeppler,  D. Barton,  Z. Benda,  Y. A. Bernard,  E. J. Berquist,  
 K. B. Bravaya,  H. Burton,  D. Casanova,  Chun-Min Chang,  Yunqing Chen,  
 A. Chien,  K. D. Closser,  M. P. Coons,  S. Coriani,  S. Dasgupta,  
 A. L. Dempwolff,  M. Diedenhofen,  Hainam Do,  R. G. Edgar,  Po-Tung Fang,  
 S. Faraji,  S. Fatehi,  Qingguo Feng,  K. D. Fenk,  J. Fosso-Tande,  
 J. Gayvert,  Qinghui Ge,  A. Ghysels,  G. Gidofalvi,  J. Gomes,  
 J. Gonthier,  A. Gunina,  D. Hait,  M. W. D. Hanson-Heine,  
 P. H. P. Harbach,  A. W. Hauser,  J. E. Herr,  E. G. Hohenstein,  
 Z. C. Holden,  Kerwin Hui,  B. C. Huynh,  T.-C. Jagau,  Hyunjun Ji,  
 B. Kaduk,  K. Khistyaev,  Jaehoon Kim,  P. Klunzinger,  K. Koh,  
 D. Kosenkov,  L. Koulias,  T. Kowalczyk,  C. M. Krauter,  A. Kunitsa,  
 Ka Un Lao,  A. Laurent,  K. V. Lawler,  Joonho Lee,  D. Lefrancois,  
 S. Lehtola,  D. S. Levine,  Yi-Pei Li,  You-Sheng Lin,  Fenglai Liu,  
 E. Livshits,  A. Luenser,  P. Manohar,  E. Mansoor,  S. F. Manzer,  
 Shan-Ping Mao,  Yuezhi Mao,  N. Mardirossian,  A. V. Marenich,  
 T. Markovich,  L. A. Martinez-Martinez,  S. A. Maurer,  N. J. Mayhall,  
 S. C. McKenzie,  J.-M. Mewes,  A. F. Morrison,  J. W. Mullinax,  K. Nanda,  
 T. S. Nguyen-Beck,  R. Olivares-Amaya,  J. A. Parkhill,  T. M. Perrine,  
 F. Plasser,  P. Pokhilko,  S. Prager,  A. Prociuk,  E. Ramos,  D. R. Rehn,  
 F. Rob,  M. Schneider,  N. Sergueev,  S. M. Sharada,  S. Sharma,  
 D. W. Small,  T. Stauch,  T. Stein,  Yu-Chuan Su,  A. J. W. Thom,  
 A. Tkatchenko,  T. Tsuchimochi,  N. M. Tubman,  L. Vogt,  M. L. Vidal,  
 O. Vydrov,  M. A. Watson,  J. Wenzel,  M. de Wergifosse,  T. A. Wesolowski,  
 A. White,  J. Witte,  A. Yamada,  Jun Yang,  K. Yao,  S. Yeganeh,  
 S. R. Yost,  Zhi-Qiang You,  A. Zech,  Igor Ying Zhang,  Xing Zhang,  
 Yan Zhao,  Ying Zhu,  B. R. Brooks,  G. K. L. Chan,  C. J. Cramer,  
 M. S. Gordon,  W. J. Hehre,  A. Klamt,  M. W. Schmidt,  C. D. Sherrill,  
 D. G. Truhlar,  A. Aspuru-Guzik,  R. Baer,  A. T. Bell,  N. A. Besley,  
 Jeng-Da Chai,  A. E. DePrince, III,  R. A. DiStasio Jr.,  A. Dreuw,  
 B. D. Dunietz,  T. R. Furlani,  Chao-Ping Hsu,  Yousung Jung,  Jing Kong,  
 D. S. Lambrecht,  WanZhen Liang,  C. Ochsenfeld,  V. A. Rassolov,  
 L. V. Slipchenko,  J. E. Subotnik,  T. Van Voorhis,  J. M. Herbert,  
 A. I. Krylov,  P. M. W. Gill,  M. Head-Gordon

 Contributors to earlier versions of Q-Chem not listed above: 
 R. D. Adamson,  B. Austin,  J. Baker,  G. J. O. Beran,  K. Brandhorst,  
 S. T. Brown,  E. F. C. Byrd,  A. K. Chakraborty,  C.-L. Cheng,  
 Siu Hung Chien,  D. M. Chipman,  D. L. Crittenden,  H. Dachsel,  
 R. J. Doerksen,  A. D. Dutoi,  L. Fusti-Molnar,  W. A. Goddard III,  
 A. Golubeva-Zadorozhnaya,  S. R. Gwaltney,  G. Hawkins,  A. Heyden,  
 S. Hirata,  G. Kedziora,  F. J. Keil,  C. Kelley,  Jihan Kim,  R. A. King,  
 R. Z. Khaliullin,  P. P. Korambath,  W. Kurlancheek,  A. M. Lee,  M. S. Lee,  
 S. V. Levchenko,  Ching Yeh Lin,  D. Liotard,  R. C. Lochan,  I. Lotan,  
 P. E. Maslen,  N. Nair,  D. P. O'Neill,  D. Neuhauser,  E. Neuscamman,  
 C. M. Oana,  R. Olson,  B. Peters,  R. Peverati,  P. A. Pieniazek,  
 Y. M. Rhee,  J. Ritchie,  M. A. Rohrdanz,  E. Rosta,  N. J. Russ,  
 H. F. Schaefer III,  N. E. Schultz,  N. Shenvi,  A. C. Simmonett,  A. Sodt,  
 D. Stuck,  K. S. Thanthiriwatte,  V. Vanovschi,  Tao Wang,  A. Warshel,  
 C. F. Williams,  Q. Wu,  X. Xu,  W. Zhang

 Please cite Q-Chem as follows:
 Y. Shao et al., Mol. Phys. 113, 184-215 (2015)
 DOI: 10.1080/00268976.2014.952696

 Q-Chem 5.1.2 for Intel X86 EM64T Linux

 Parts of Q-Chem use Armadillo 8.300.2 (Tropical Shenanigans).
 http://arma.sourceforge.net/

 Q-Chem begins on Wed Jul  3 16:48:31 2019  

Host: 
0

     Scratch files written to /scratch/xuedong/qchem33861//
 Dec218 |scratch|qcdevops|jenkins|workspace|build_RNUM 6581   
Processing $rem in /home/qwang/software/qchem5.1.2/config/preferences.
 MEM_TOTAL  4000 
Core orbitals will be frozen
Input Ideriv = 1
Curr. Ideriv = -1
Max.  Ideriv = 1

Checking the input file for inconsistencies... 	...done.

--------------------------------------------------------------
User input:
--------------------------------------------------------------

$molecule
0 1
Si     2.014998435     0.321073490    -0.133289128
H     1.503542539     1.072357510     1.035552051
H     1.215154919    -0.917779499    -0.277040965
H     1.816801357     1.147049434    -1.346132733
C     3.832693717    -0.093902041     0.092465048
H     4.212738567    -0.647371106    -0.764407842
H     3.983063110    -0.702802282     0.982191073
H     4.425687573     0.812791426     0.199197617
@Si    -1.806293264    -0.289473842    -0.012102735
@H    -1.576523963    -1.459109141    -0.890425996
@H    -1.283877833    -0.604998329     1.336897230
@H    -1.039961261     0.857933339    -0.552118095
@C    -3.636440637     0.124622901     0.068965178
@H    -3.810562618     0.986298183     0.710967592
@H    -4.205190038    -0.713964991     0.466994564
@H    -4.024786758     0.356608535    -0.921189992
$end

$rem
BASIS = aug-cc-pVTZ
JOB_TYPE  =  SP
METHOD  =  MP2
SCF_MAX_CYCLES  =  200
$end

--------------------------------------------------------------
 ----------------------------------------------------------------
             Standard Nuclear Orientation (Angstroms)
    I     Atom           X                Y                Z
 ----------------------------------------------------------------
    1      Si      2.0149984350     0.3210734900    -0.1332891280
    2      H       1.5035425390     1.0723575100     1.0355520510
    3      H       1.2151549190    -0.9177794990    -0.2770409650
    4      H       1.8168013570     1.1470494340    -1.3461327330
    5      C       3.8326937170    -0.0939020410     0.0924650480
    6      H       4.2127385670    -0.6473711060    -0.7644078420
    7      H       3.9830631100    -0.7028022820     0.9821910730
    8      H       4.4256875730     0.8127914260     0.1991976170
    9      GH     -1.8062932640    -0.2894738420    -0.0121027350
   10      GH     -1.5765239630    -1.4591091410    -0.8904259960
   11      GH     -1.2838778330    -0.6049983290     1.3368972300
   12      GH     -1.0399612610     0.8579333390    -0.5521180950
   13      GH     -3.6364406370     0.1246229010     0.0689651780
   14      GH     -3.8105626180     0.9862981830     0.7109675920
   15      GH     -4.2051900380    -0.7139649910     0.4669945640
   16      GH     -4.0247867580     0.3566085350    -0.9211899920
 ----------------------------------------------------------------
 Nuclear Repulsion Energy =    62.8498627631 hartrees
 There are       13 alpha and       13 beta electrons
 Requested basis set is aug-cc-pVTZ
 There are 168 shells and 468 basis functions

 Total QAlloc Memory Limit   4000 MB
 Mega-Array Size       188 MB
 MEM_STATIC part       192 MB
 A cutoff of  1.0D-08 yielded  11302 shell pairs
 There are     83666 function pairs (    105986 Cartesian)
 
 -------------------------------------------------------
 OpenMP Integral Computing Module                       
 Release: version 1.0, May 2013, Q-Chem Inc. Pittsburgh 
 -------------------------------------------------------
 Integral Job Info:
 Integral job number is                      11
 Integral operator is                         1
 short-range coefficients                     0
 long-range coefficients              100000000
 Omega coefficients                           0
 if combine SR and LR in K                    0
 Integral screening is                        0
 Integral computing path is                   2
 max size of driver memory is            800000
 size of driver memory is                776718
 size of scratch memory is             29531563
 max col of scratch BK array              10000
 max len of scratch array in speh3          662
 max len of scratch index in speh4           32
 max int batch size is                      520
 min int batch size is                       52
 fixed nKL is                                31
 max L of basis functions is                  3
 order of int derivative is                   0
 number of shells is                        168
 number of basis is                         528
 number of cartesian basis is               528
 number of contracted shell pairs         11302
 number of primitive shell pairs          31204
 maxK2 (contraction) of shell pair          169
 max number of K2 of shell pair               1
 max number of CS2 of shell pair           2131
 max number of PS2 of shell pair           3068
 mem total for path MDJ                  774300
 -------------------------------------------------------
 Smallest overlap matrix eigenvalue = 1.02E-05

 Q-Chem warning in module stvman/mkSTV.C, line 306:

 Overlap eigenvalue is smaller than square root of threshold
 Use THRESH >= 12 to get rid of this warning


 Scale SEOQF with 1.000000e-01/1.000000e-01/1.000000e-01

 Standard Electronic Orientation quadrupole field applied
 Nucleus-field energy     =     0.0000000073 hartrees
 Guess from superposition of atomic densities
 Warning:  Energy on first SCF cycle will be non-variational
 SAD guess density has 26.000000 electrons

 -----------------------------------------------------------------------
  General SCF calculation program by
  Eric Jon Sundstrom, Paul Horn, Yuezhi Mao, Dmitri Zuev, Alec White,
  David Stuck, Shaama M.S., Shane Yost, Joonho Lee, David Small,
  Daniel Levine, Susi Lehtola, Hugh Burton, Evgeny Epifanovsky
 -----------------------------------------------------------------------
 Hartree-Fock
 using 6 threads for integral computing
 -------------------------------------------------------
 OpenMP Integral computing Module                
 Release: version 1.0, May 2013, Q-Chem Inc. Pittsburgh 
 -------------------------------------------------------
 A restricted SCF calculation will be
 performed using DIIS
 SCF converges when DIIS error is below 1.0e-05
 ---------------------------------------
  Cycle       Energy         DIIS error
 ---------------------------------------
    1    -330.4725854324      1.04e-02  
    2    -330.2951302384      7.86e-04  
    3    -330.3203946519      2.33e-04  
    4    -330.3228684267      9.50e-05  
    5    -330.3232350591      1.18e-05  
    6    -330.3232462001      2.48e-06  Convergence criterion met
 ---------------------------------------
 SCF time:   CPU 452.40s  wall 76.00s 
 SCF   energy in the final basis set =     -330.3232462001
 Total energy in the final basis set =     -330.3232462001
 
 Components of the MP2 correlation energy:
        aaaa  correlation energy =        -0.0278614010 au
        abab  correlation energy =        -0.2681913481 au
        bbbb  correlation energy =        -0.0278614010 au
        non-Brillouin singles    =        -0.0000000000 au

 Total  MP2   correlation energy =                    -0.32391415 au
        MP2         total energy =                  -330.64716035 au
 
 --------------------------------------------------------------
 
                    Orbital Energies (a.u.)
 --------------------------------------------------------------
 
 Alpha MOs
 -- Occupied --
-68.766 -11.208  -6.114  -4.221  -4.221  -4.220  -0.950  -0.699
 -0.565  -0.565  -0.469  -0.468  -0.455
 -- Virtual --
  0.022   0.030   0.040   0.040   0.046   0.050   0.050   0.064
  0.068   0.068   0.072   0.076   0.088   0.091   0.094   0.102
  0.106   0.107   0.120   0.126   0.127   0.131   0.141   0.144
  0.148   0.156   0.161   0.165   0.171   0.176   0.188   0.197
  0.207   0.210   0.211   0.215   0.218   0.228   0.233   0.251
  0.251   0.258   0.264   0.270   0.289   0.291   0.294   0.301
  0.307   0.313   0.315   0.321   0.322   0.332   0.337   0.339
  0.344   0.346   0.353   0.358   0.360   0.367   0.368   0.370
  0.377   0.380   0.387   0.396   0.399   0.417   0.418   0.432
  0.434   0.438   0.441   0.450   0.453   0.456   0.460   0.462
  0.469   0.475   0.484   0.488   0.489   0.493   0.497   0.503
  0.508   0.510   0.519   0.527   0.530   0.544   0.556   0.565
  0.571   0.581   0.592   0.608   0.610   0.623   0.630   0.637
  0.646   0.663   0.674   0.678   0.680   0.684   0.687   0.695
  0.704   0.705   0.715   0.719   0.726   0.738   0.746   0.751
  0.758   0.767   0.798   0.805   0.823   0.830   0.835   0.840
  0.844   0.854   0.868   0.881   0.894   0.896   0.909   0.919
  0.925   0.938   0.943   0.952   0.962   0.966   0.977   0.984
  0.991   1.005   1.016   1.020   1.033   1.038   1.044   1.047
  1.059   1.064   1.069   1.076   1.090   1.101   1.104   1.106
  1.116   1.132   1.136   1.141   1.149   1.154   1.156   1.165
  1.171   1.178   1.181   1.186   1.190   1.195   1.198   1.208
  1.219   1.219   1.223   1.230   1.238   1.242   1.250   1.257
  1.268   1.272   1.275   1.284   1.291   1.298   1.311   1.320
  1.325   1.337   1.346   1.352   1.362   1.365   1.375   1.383
  1.399   1.410   1.414   1.420   1.428   1.441   1.445   1.448
  1.450   1.457   1.466   1.475   1.477   1.492   1.505   1.519
  1.529   1.540   1.553   1.568   1.576   1.585   1.602   1.618
  1.625   1.632   1.644   1.650   1.660   1.672   1.683   1.693
  1.706   1.711   1.719   1.738   1.759   1.760   1.768   1.793
  1.798   1.807   1.846   1.851   1.852   1.862   1.872   1.880
  1.898   1.916   1.917   1.935   1.948   1.974   1.995   2.015
  2.029   2.036   2.047   2.052   2.061   2.072   2.082   2.087
  2.095   2.125   2.133   2.143   2.163   2.170   2.187   2.191
  2.218   2.231   2.245   2.286   2.296   2.308   2.312   2.359
  2.369   2.384   2.386   2.404   2.417   2.489   2.501   2.517
  2.530   2.552   2.559   2.608   2.703   2.724   2.751   2.784
  2.792   2.810   3.010   3.024   3.116   3.137   3.163   3.218
  3.364   3.417   3.422   3.538   3.568   3.577   3.614   3.649
  3.664   3.666   3.751   3.781   3.802   3.832   3.847   3.858
  3.902   3.948   3.950   3.982   4.028   4.076   4.080   4.085
  4.091   4.115   4.117   4.120   4.125   4.128   4.133   4.150
  4.160   4.179   4.182   4.189   4.204   4.218   4.218   4.241
  4.261   4.279   4.299   4.325   4.333   4.346   4.350   4.370
  4.378   4.398   4.412   4.429   4.438   4.442   4.476   4.489
  4.500   4.503   4.517   4.535   4.545   4.551   4.560   4.578
  4.587   4.604   4.611   4.623   4.631   4.644   4.660   4.691
  4.715   4.719   4.753   4.774   4.780   4.790   4.802   4.819
  4.845   4.864   4.869   4.885   4.908   4.913   4.933   4.941
  4.986   5.003   5.008   5.027   5.041   5.067   5.108   5.165
  5.170   5.184   5.191   5.239   5.245   5.260   5.297   5.301
  5.322   5.352   5.358   5.363   5.378   5.394   5.465   5.472
  5.511   5.517   5.530   5.566   5.603   5.605   5.627   5.651
  5.659   5.769   5.948   6.075   6.105   6.111   6.141   6.161
  6.177   6.196   6.217   6.245   6.701   6.702   6.743   6.743
  7.085   7.514   7.807   7.809   8.152   8.153   9.246  10.297
 15.361  17.075  20.492  20.590  21.176  51.427 107.022
 --------------------------------------------------------------
 
          Ground-State Mulliken Net Atomic Charges

     Atom                 Charge (a.u.)
  ----------------------------------------
      1 Si                    1.464285
      2 H                    -0.360663
      3 H                    -0.314962
      4 H                    -0.378955
      5 C                    -1.241860
      6 H                     0.269321
      7 H                     0.287594
      8 H                     0.251457
      9 GH                    0.035208
     10 GH                   -0.000193
     11 GH                   -0.002904
     12 GH                    0.007001
     13 GH                   -0.012406
     14 GH                   -0.001437
     15 GH                   -0.000647
     16 GH                   -0.000841
  ----------------------------------------
  Sum of atomic charges =    -0.000001

 -----------------------------------------------------------------
                    Cartesian Multipole Moments
 -----------------------------------------------------------------
    Charge (ESU x 10^10)
                -0.0000
    Dipole Moment (Debye)
         X       0.6868      Y      -0.1486      Z       0.0858
       Tot       0.7079
    Quadrupole Moments (Debye-Ang)
        XX     -20.0455     XY      -0.1888     YY     -23.3498
        XZ       0.1380     YZ       0.0337     ZZ     -23.2910
    Octopole Moments (Debye-Ang^2)
       XXX    -170.0340    XXY      -3.2633    XYY     -58.1542
       YYY     -12.9110    XXZ       1.0908    XYZ       0.5536
       YYZ       1.9112    XZZ     -58.5445    YZZ      -6.7437
       ZZZ       4.8190
    Hexadecapole Moments (Debye-Ang^3)
      XXXX   -1075.9545   XXXY     -11.4040   XXYY    -183.4669
      XYYY     -19.2833   YYYY     -67.8191   XXXZ       0.2810
      XXYZ       3.3554   XYYZ       2.7036   YYYZ       2.6427
      XXZZ    -184.9889   XYZZ     -13.1781   YYZZ     -22.0308
      XZZZ       5.1823   YZZZ       2.8483   ZZZZ     -59.4771
 -----------------------------------------------------------------
Archival summary:
1\1\mm2.localdomain\SP\MP2\BasisUnspecified\i116h8\xuedong\WedJul316:56:012019WedJul316:56:012019\0\\#,MP2,BasisUnspecified,\\0,1\Si\H,1,1.48061\H,1,1.48071,2,108.502\H,1,1.48161,2,108.324,3,-117.413,0\C,1,1.87808,2,110.582,3,121.421,0\H,5,1.08857,1,110.826,2,59.911,0\H,5,1.08857,1,110.831,2,179.941,0\H,5,1.08864,1,110.791,2,-60.0734,0\Gh,4,2.88347,1,85.2124,2,59.4319,0\Gh,9,1.4817,4,83.8482,1,-152.952,0\Gh,10,1.48063,9,108.336,4,60.8028,0\Gh,10,1.48064,9,108.377,4,-56.7407,0\Gh,10,1.87816,9,110.424,4,-177.964,0\Gh,13,1.08856,10,110.845,9,-59.8796,0\Gh,13,1.08859,10,110.815,9,60.1478,0\Gh,13,1.08864,10,110.795,9,-179.884,0\\HF=-330.323246\MP2=-330.64716\\@

 Total job time:  449.96s(wall), 2691.82s(cpu) 
 Wed Jul  3 16:56:01 2019

        *************************************************************
        *                                                           *
        *  Thank you very much for using Q-Chem.  Have a nice day.  *
        *                                                           *
        *************************************************************


