
Running Job 1 of 3 ../qm_inp/SiH3CH3_SiH3CH3_con3.100.qcinp
qchem ../qm_inp/SiH3CH3_SiH3CH3_con3.100.qcinp_34525.0 /scratch/xuedong/qchem34525/ 1
/home/qwang/software/qchem5.1.2/exe/qcprog.exe_s ../qm_inp/SiH3CH3_SiH3CH3_con3.100.qcinp_34525.0 /scratch/xuedong/qchem34525/
Check license passed

                  Welcome to Q-Chem
     A Quantum Leap Into The Future Of Chemistry


 Q-Chem 5.1, Q-Chem, Inc., Pleasanton, CA (2018)

 Yihan Shao,  Zhengting Gan,  E. Epifanovsky,  A. T. B. Gilbert,  M. Wormit,  
 J. Kussmann,  A. W. Lange,  A. Behn,  Jia Deng,  Xintian Feng,  D. Ghosh,  
 M. Goldey,  P. R. Horn,  L. D. Jacobson,  I. Kaliman,  T. Kus,  A. Landau,  
 Jie Liu,  E. I. Proynov,  R. M. Richard,  R. P. Steele,  E. J. Sundstrom,  
 H. L. Woodcock III,  P. M. Zimmerman,  D. Zuev,  B. Albrecht,  E. Alguire,  
 S. A. Baeppler,  D. Barton,  Z. Benda,  Y. A. Bernard,  E. J. Berquist,  
 K. B. Bravaya,  H. Burton,  D. Casanova,  Chun-Min Chang,  Yunqing Chen,  
 A. Chien,  K. D. Closser,  M. P. Coons,  S. Coriani,  S. Dasgupta,  
 A. L. Dempwolff,  M. Diedenhofen,  Hainam Do,  R. G. Edgar,  Po-Tung Fang,  
 S. Faraji,  S. Fatehi,  Qingguo Feng,  K. D. Fenk,  J. Fosso-Tande,  
 J. Gayvert,  Qinghui Ge,  A. Ghysels,  G. Gidofalvi,  J. Gomes,  
 J. Gonthier,  A. Gunina,  D. Hait,  M. W. D. Hanson-Heine,  
 P. H. P. Harbach,  A. W. Hauser,  J. E. Herr,  E. G. Hohenstein,  
 Z. C. Holden,  Kerwin Hui,  B. C. Huynh,  T.-C. Jagau,  Hyunjun Ji,  
 B. Kaduk,  K. Khistyaev,  Jaehoon Kim,  P. Klunzinger,  K. Koh,  
 D. Kosenkov,  L. Koulias,  T. Kowalczyk,  C. M. Krauter,  A. Kunitsa,  
 Ka Un Lao,  A. Laurent,  K. V. Lawler,  Joonho Lee,  D. Lefrancois,  
 S. Lehtola,  D. S. Levine,  Yi-Pei Li,  You-Sheng Lin,  Fenglai Liu,  
 E. Livshits,  A. Luenser,  P. Manohar,  E. Mansoor,  S. F. Manzer,  
 Shan-Ping Mao,  Yuezhi Mao,  N. Mardirossian,  A. V. Marenich,  
 T. Markovich,  L. A. Martinez-Martinez,  S. A. Maurer,  N. J. Mayhall,  
 S. C. McKenzie,  J.-M. Mewes,  A. F. Morrison,  J. W. Mullinax,  K. Nanda,  
 T. S. Nguyen-Beck,  R. Olivares-Amaya,  J. A. Parkhill,  T. M. Perrine,  
 F. Plasser,  P. Pokhilko,  S. Prager,  A. Prociuk,  E. Ramos,  D. R. Rehn,  
 F. Rob,  M. Schneider,  N. Sergueev,  S. M. Sharada,  S. Sharma,  
 D. W. Small,  T. Stauch,  T. Stein,  Yu-Chuan Su,  A. J. W. Thom,  
 A. Tkatchenko,  T. Tsuchimochi,  N. M. Tubman,  L. Vogt,  M. L. Vidal,  
 O. Vydrov,  M. A. Watson,  J. Wenzel,  M. de Wergifosse,  T. A. Wesolowski,  
 A. White,  J. Witte,  A. Yamada,  Jun Yang,  K. Yao,  S. Yeganeh,  
 S. R. Yost,  Zhi-Qiang You,  A. Zech,  Igor Ying Zhang,  Xing Zhang,  
 Yan Zhao,  Ying Zhu,  B. R. Brooks,  G. K. L. Chan,  C. J. Cramer,  
 M. S. Gordon,  W. J. Hehre,  A. Klamt,  M. W. Schmidt,  C. D. Sherrill,  
 D. G. Truhlar,  A. Aspuru-Guzik,  R. Baer,  A. T. Bell,  N. A. Besley,  
 Jeng-Da Chai,  A. E. DePrince, III,  R. A. DiStasio Jr.,  A. Dreuw,  
 B. D. Dunietz,  T. R. Furlani,  Chao-Ping Hsu,  Yousung Jung,  Jing Kong,  
 D. S. Lambrecht,  WanZhen Liang,  C. Ochsenfeld,  V. A. Rassolov,  
 L. V. Slipchenko,  J. E. Subotnik,  T. Van Voorhis,  J. M. Herbert,  
 A. I. Krylov,  P. M. W. Gill,  M. Head-Gordon

 Contributors to earlier versions of Q-Chem not listed above: 
 R. D. Adamson,  B. Austin,  J. Baker,  G. J. O. Beran,  K. Brandhorst,  
 S. T. Brown,  E. F. C. Byrd,  A. K. Chakraborty,  C.-L. Cheng,  
 Siu Hung Chien,  D. M. Chipman,  D. L. Crittenden,  H. Dachsel,  
 R. J. Doerksen,  A. D. Dutoi,  L. Fusti-Molnar,  W. A. Goddard III,  
 A. Golubeva-Zadorozhnaya,  S. R. Gwaltney,  G. Hawkins,  A. Heyden,  
 S. Hirata,  G. Kedziora,  F. J. Keil,  C. Kelley,  Jihan Kim,  R. A. King,  
 R. Z. Khaliullin,  P. P. Korambath,  W. Kurlancheek,  A. M. Lee,  M. S. Lee,  
 S. V. Levchenko,  Ching Yeh Lin,  D. Liotard,  R. C. Lochan,  I. Lotan,  
 P. E. Maslen,  N. Nair,  D. P. O'Neill,  D. Neuhauser,  E. Neuscamman,  
 C. M. Oana,  R. Olson,  B. Peters,  R. Peverati,  P. A. Pieniazek,  
 Y. M. Rhee,  J. Ritchie,  M. A. Rohrdanz,  E. Rosta,  N. J. Russ,  
 H. F. Schaefer III,  N. E. Schultz,  N. Shenvi,  A. C. Simmonett,  A. Sodt,  
 D. Stuck,  K. S. Thanthiriwatte,  V. Vanovschi,  Tao Wang,  A. Warshel,  
 C. F. Williams,  Q. Wu,  X. Xu,  W. Zhang

 Please cite Q-Chem as follows:
 Y. Shao et al., Mol. Phys. 113, 184-215 (2015)
 DOI: 10.1080/00268976.2014.952696

 Q-Chem 5.1.2 for Intel X86 EM64T Linux

 Parts of Q-Chem use Armadillo 8.300.2 (Tropical Shenanigans).
 http://arma.sourceforge.net/

 Q-Chem begins on Wed Jul  3 18:08:44 2019  

Host: 
0

     Scratch files written to /scratch/xuedong/qchem34525//
 Dec218 |scratch|qcdevops|jenkins|workspace|build_RNUM 6581   
Processing $rem in /home/qwang/software/qchem5.1.2/config/preferences.
 MEM_TOTAL  4000 
Core orbitals will be frozen
Input Ideriv = 1
Curr. Ideriv = -1
Max.  Ideriv = 1

Checking the input file for inconsistencies... 	...done.

--------------------------------------------------------------
User input:
--------------------------------------------------------------
$molecule
0 1
Si     3.762272567     0.100944777     0.006072646
H     3.981291986     1.564414477     0.064186564
H     4.389924271    -0.416429655    -1.231422106
H     4.439607953    -0.519141536     1.167849490
C     1.925645521    -0.291305561     0.027271718
H     1.759401550    -1.366486120    -0.015128601
H     1.421772543     0.162315456    -0.824405717
H     1.458679937     0.087942478     0.934592371
Si    -3.758486005    -0.118812974     0.010320332
H    -3.988179326    -1.397715612    -0.700161430
H    -4.561938445     0.934142785    -0.652089850
H    -4.238927311    -0.265809400     1.403401428
C    -1.934888918     0.329646366    -0.013674007
H    -1.760507173     1.269465636     0.507577091
H    -1.576224329     0.438864182    -1.035763281
H    -1.338520617    -0.441255146     0.470998256
$end

$rem
BASIS = aug-cc-pVTZ
JOB_TYPE  =  SP
METHOD  =  MP2
SCF_MAX_CYCLES  =  200
$end

--------------------------------------------------------------
 ----------------------------------------------------------------
             Standard Nuclear Orientation (Angstroms)
    I     Atom           X                Y                Z
 ----------------------------------------------------------------
    1      Si      3.7632748227     0.0697005928    -0.0001411802
    2      H       3.9943001099     1.5255234100     0.1423282479
    3      H       4.3858363197    -0.3802570388    -1.2662263029
    4      H       4.4362986754    -0.6220828586     1.1230196479
    5      C       1.9235146313    -0.3081760390     0.0004276244
    6      H       1.7484505792    -1.3777122872    -0.1039412922
    7      H       1.4227948098     0.1980660657    -0.8229878540
    8      H       1.4602806646     0.0216978102     0.9287132673
    9      Si     -3.7590254660    -0.0887902650     0.0000136463
   10      H      -3.9996548625    -1.3225114889    -0.7830347229
   11      H      -4.5542830926     1.0072410328    -0.5994190893
   12      H      -4.2397122557    -0.3122705153     1.3828019619
   13      C      -1.9318367851     0.3454669856    -0.0000774495
   14      H      -1.7494192807     1.2520882051     0.5744952429
   15      H      -1.5729811019     0.5107477032    -1.0145429175
   16      H      -1.3414686367    -0.4570203065     0.4384782363
 ----------------------------------------------------------------
 Molecular Point Group                 C1    NOp =  1
 Largest Abelian Subgroup              C1    NOp =  1
 Nuclear Repulsion Energy =   185.3561018567 hartrees
 There are       26 alpha and       26 beta electrons
 Requested basis set is aug-cc-pVTZ
 There are 168 shells and 468 basis functions

 Total QAlloc Memory Limit   4000 MB
 Mega-Array Size       188 MB
 MEM_STATIC part       192 MB
 A cutoff of  1.0D-08 yielded  11195 shell pairs
 There are     83305 function pairs (    105595 Cartesian)
 
 -------------------------------------------------------
 OpenMP Integral Computing Module                       
 Release: version 1.0, May 2013, Q-Chem Inc. Pittsburgh 
 -------------------------------------------------------
 Integral Job Info:
 Integral job number is                      11
 Integral operator is                         1
 short-range coefficients                     0
 long-range coefficients              100000000
 Omega coefficients                           0
 if combine SR and LR in K                    0
 Integral screening is                        0
 Integral computing path is                   2
 max size of driver memory is            800000
 size of driver memory is                776718
 size of scratch memory is             29531563
 max col of scratch BK array              10000
 max len of scratch array in speh3          662
 max len of scratch index in speh4           32
 max int batch size is                      520
 min int batch size is                       52
 fixed nKL is                                31
 max L of basis functions is                  3
 order of int derivative is                   0
 number of shells is                        168
 number of basis is                         528
 number of cartesian basis is               528
 number of contracted shell pairs         11195
 number of primitive shell pairs          29772
 maxK2 (contraction) of shell pair          169
 max number of K2 of shell pair               1
 max number of CS2 of shell pair           2142
 max number of PS2 of shell pair           2782
 mem total for path MDJ                  775340
 -------------------------------------------------------
 Smallest overlap matrix eigenvalue = 1.14E-05

 Q-Chem warning in module stvman/mkSTV.C, line 306:

 Overlap eigenvalue is smaller than square root of threshold
 Use THRESH >= 12 to get rid of this warning


 Scale SEOQF with 1.000000e-01/1.000000e-01/1.000000e-01

 Standard Electronic Orientation quadrupole field applied
 Nucleus-field energy     =     0.0000000200 hartrees
 Guess from superposition of atomic densities
 Warning:  Energy on first SCF cycle will be non-variational
 SAD guess density has 52.000000 electrons

 -----------------------------------------------------------------------
  General SCF calculation program by
  Eric Jon Sundstrom, Paul Horn, Yuezhi Mao, Dmitri Zuev, Alec White,
  David Stuck, Shaama M.S., Shane Yost, Joonho Lee, David Small,
  Daniel Levine, Susi Lehtola, Hugh Burton, Evgeny Epifanovsky
 -----------------------------------------------------------------------
 Hartree-Fock
 using 6 threads for integral computing
 -------------------------------------------------------
 OpenMP Integral computing Module                
 Release: version 1.0, May 2013, Q-Chem Inc. Pittsburgh 
 -------------------------------------------------------
 A restricted SCF calculation will be
 performed using DIIS
 SCF converges when DIIS error is below 1.0e-05
 ---------------------------------------
  Cycle       Energy         DIIS error
 ---------------------------------------
    1    -660.9518922954      1.47e-02  
    2    -660.5891106792      1.11e-03  
    3    -660.6399281545      3.29e-04  
    4    -660.6449002397      1.34e-04  
    5    -660.6456346074      1.68e-05  
    6    -660.6456571374      3.45e-06  Convergence criterion met
 ---------------------------------------
 SCF time:   CPU 450.12s  wall 75.00s 
 SCF   energy in the final basis set =     -660.6456571374
 Total energy in the final basis set =     -660.6456571374
 
 Components of the MP2 correlation energy:
        aaaa  correlation energy =        -0.0560615560 au
        abab  correlation energy =        -0.5368450985 au
        bbbb  correlation energy =        -0.0560615560 au
        non-Brillouin singles    =        -0.0000000000 au

 Total  MP2   correlation energy =                    -0.64896821 au
        MP2         total energy =                  -661.29462535 au
 
 --------------------------------------------------------------
 
                    Orbital Energies (a.u.)
 --------------------------------------------------------------
 
 Alpha MOs
 -- Occupied --
-68.767 -68.767 -11.210 -11.210  -6.116  -6.115  -4.222  -4.222
 -4.222  -4.222  -4.221  -4.221  -0.953  -0.949  -0.701  -0.699
 -0.569  -0.567  -0.566  -0.564  -0.470  -0.470  -0.470  -0.469
 -0.461  -0.451
 -- Virtual --
  0.027   0.037   0.039   0.040   0.044   0.055   0.057   0.061
  0.064   0.068   0.072   0.073   0.078   0.087   0.087   0.099
  0.104   0.111   0.127   0.133   0.139   0.143   0.143   0.147
  0.148   0.158   0.160   0.162   0.164   0.165   0.175   0.181
  0.188   0.197   0.202   0.217   0.219   0.229   0.232   0.235
  0.245   0.248   0.253   0.257   0.258   0.269   0.285   0.289
  0.292   0.293   0.299   0.305   0.316   0.323   0.325   0.329
  0.331   0.333   0.335   0.338   0.342   0.346   0.351   0.353
  0.357   0.363   0.371   0.379   0.381   0.391   0.392   0.402
  0.408   0.427   0.429   0.433   0.441   0.443   0.448   0.453
  0.464   0.467   0.475   0.477   0.479   0.485   0.490   0.492
  0.501   0.507   0.512   0.518   0.520   0.521   0.533   0.548
  0.562   0.576   0.580   0.589   0.602   0.616   0.622   0.630
  0.642   0.648   0.650   0.654   0.656   0.660   0.662   0.666
  0.672   0.691   0.692   0.697   0.701   0.704   0.717   0.719
  0.721   0.737   0.748   0.765   0.784   0.794   0.799   0.812
  0.816   0.830   0.842   0.843   0.849   0.856   0.877   0.891
  0.893   0.904   0.909   0.919   0.922   0.932   0.935   0.942
  0.947   0.965   0.970   0.978   0.980   0.990   0.994   1.002
  1.012   1.018   1.019   1.027   1.037   1.040   1.049   1.060
  1.063   1.066   1.067   1.084   1.091   1.098   1.106   1.117
  1.121   1.125   1.137   1.140   1.147   1.150   1.164   1.165
  1.169   1.175   1.184   1.187   1.203   1.204   1.216   1.223
  1.229   1.234   1.248   1.255   1.266   1.268   1.277   1.285
  1.296   1.301   1.308   1.318   1.323   1.327   1.335   1.344
  1.344   1.356   1.377   1.381   1.389   1.393   1.404   1.409
  1.412   1.425   1.435   1.437   1.439   1.444   1.449   1.452
  1.462   1.463   1.474   1.479   1.489   1.501   1.511   1.522
  1.531   1.541   1.549   1.565   1.574   1.580   1.615   1.641
  1.645   1.652   1.654   1.667   1.675   1.680   1.688   1.709
  1.712   1.729   1.737   1.758   1.775   1.813   1.820   1.825
  1.838   1.853   1.861   1.876   1.887   1.914   1.924   1.956
  1.976   1.983   2.007   2.016   2.023   2.026   2.032   2.038
  2.050   2.051   2.059   2.070   2.079   2.084   2.116   2.137
  2.142   2.148   2.153   2.163   2.171   2.178   2.184   2.209
  2.234   2.242   2.280   2.280   2.284   2.286   2.348   2.363
  2.391   2.400   2.407   2.416   2.771   2.792   3.097   3.099
  3.105   3.113   3.127   3.193   3.324   3.343   3.411   3.419
  3.428   3.442   3.445   3.466   3.562   3.567   3.574   3.586
  3.614   3.618   3.653   3.668   3.681   3.688   3.692   3.704
  3.713   3.720   3.727   3.735   3.843   3.847   3.873   3.918
  3.943   3.952   3.963   3.975   3.992   3.992   4.015   4.037
  4.050   4.059   4.065   4.068   4.096   4.103   4.107   4.116
  4.129   4.131   4.135   4.135   4.137   4.145   4.153   4.170
  4.182   4.196   4.205   4.212   4.215   4.217   4.220   4.228
  4.238   4.240   4.260   4.292   4.332   4.335   4.336   4.336
  4.338   4.347   4.369   4.379   4.498   4.506   4.507   4.519
  4.528   4.533   4.537   4.573   4.593   4.600   4.604   4.610
  4.614   4.618   4.765   4.769   4.780   4.784   4.789   4.791
  4.804   4.808   4.815   4.819   4.851   4.872   4.886   4.894
  4.899   5.005   5.008   5.016   5.030   5.032   5.037   5.048
  5.053   5.089   5.167   5.170   5.178   5.184   5.240   5.245
  5.252   5.261   5.361   5.370   5.574   5.586   5.603   5.609
  5.611   5.617   5.647   5.656   5.935   5.968   6.110   6.125
  6.133   6.141   6.703   6.706   6.718   6.733   9.101   9.183
 17.266  17.540
 --------------------------------------------------------------
 
          Ground-State Mulliken Net Atomic Charges

     Atom                 Charge (a.u.)
  ----------------------------------------
      1 Si                    1.285395
      2 H                    -0.377654
      3 H                    -0.393644
      4 H                    -0.391966
      5 C                    -1.091572
      6 H                     0.320711
      7 H                     0.336601
      8 H                     0.313408
      9 Si                    1.306800
     10 H                    -0.380520
     11 H                    -0.393741
     12 H                    -0.391607
     13 C                    -1.068282
     14 H                     0.309459
     15 H                     0.301460
     16 H                     0.315150
  ----------------------------------------
  Sum of atomic charges =    -0.000002

 -----------------------------------------------------------------
                    Cartesian Multipole Moments
 -----------------------------------------------------------------
    Charge (ESU x 10^10)
                -0.0000
    Dipole Moment (Debye)
         X       0.0016      Y       0.0230      Z      -0.0001
       Tot       0.0230
    Quadrupole Moments (Debye-Ang)
        XX     -55.9942     XY      -1.0314     YY     -46.5680
        XZ      -0.0043     YZ       0.0057     ZZ     -46.5676
    Octopole Moments (Debye-Ang^2)
       XXX       0.0376    XXY       0.0819    XYY       0.3477
       YYY      -1.8731    XXZ       0.0732    XYZ      -0.3059
       YYZ       1.2192    XZZ      -0.4822    YZZ       2.3327
       ZZZ      -1.2937
    Hexadecapole Moments (Debye-Ang^3)
      XXXX   -3368.9493   XXXY       5.9048   XXYY    -571.8356
      XYYY     -15.8325   YYYY    -125.0568   XXXZ      -1.1928
      XXYZ       3.3291   XYYZ      -7.2656   YYYZ       0.5561
      XXZZ    -577.5309   XYZZ       0.1910   YYZZ     -40.1392
      XZZZ       7.5529   YZZZ      -0.1808   ZZZZ    -114.1653
 -----------------------------------------------------------------
Archival summary:
1\1\mm2.localdomain\SP\MP2\BasisUnspecified\i2212\xuedong\WedJul318:16:252019WedJul318:16:252019\0\\#,MP2,BasisUnspecified,\\0,1\Si\H,1,1.48089\H,1,1.48091,2,108.381\H,1,1.48092,2,108.378,3,117.417,0\C,1,1.87808,2,110.567,3,-121.294,0\H,5,1.08851,1,110.927,2,-179.937,0\H,5,1.08869,1,110.845,2,-59.996,0\H,5,1.08875,1,110.826,2,59.9946,0\H,6,2.88432,5,118.226,1,-171.768,0\C,9,1.08863,6,102.598,5,-90.4978,0\H,10,1.08858,9,107.96,6,52.4778,0\H,10,1.08878,9,108.118,6,-64.2236,0\Si,10,1.87817,9,110.862,6,174.139,0\H,13,1.48088,10,110.546,9,60.0552,0\H,13,1.48088,10,110.544,9,-179.931,0\H,13,1.48091,10,110.522,9,-59.9389,0\\HF=-660.645657\MP2=-661.294625\\@

 Total job time:  461.23s(wall), 2733.44s(cpu) 
 Wed Jul  3 18:16:25 2019

        *************************************************************
        *                                                           *
        *  Thank you very much for using Q-Chem.  Have a nice day.  *
        *                                                           *
        *************************************************************



Running Job 2 of 3 ../qm_inp/SiH3CH3_SiH3CH3_con3.100.qcinp
qchem ../qm_inp/SiH3CH3_SiH3CH3_con3.100.qcinp_34525.1 /scratch/xuedong/qchem34525/ 1
/home/qwang/software/qchem5.1.2/exe/qcprog.exe_s ../qm_inp/SiH3CH3_SiH3CH3_con3.100.qcinp_34525.1 /scratch/xuedong/qchem34525/
Check license passed

                  Welcome to Q-Chem
     A Quantum Leap Into The Future Of Chemistry


 Q-Chem 5.1, Q-Chem, Inc., Pleasanton, CA (2018)

 Yihan Shao,  Zhengting Gan,  E. Epifanovsky,  A. T. B. Gilbert,  M. Wormit,  
 J. Kussmann,  A. W. Lange,  A. Behn,  Jia Deng,  Xintian Feng,  D. Ghosh,  
 M. Goldey,  P. R. Horn,  L. D. Jacobson,  I. Kaliman,  T. Kus,  A. Landau,  
 Jie Liu,  E. I. Proynov,  R. M. Richard,  R. P. Steele,  E. J. Sundstrom,  
 H. L. Woodcock III,  P. M. Zimmerman,  D. Zuev,  B. Albrecht,  E. Alguire,  
 S. A. Baeppler,  D. Barton,  Z. Benda,  Y. A. Bernard,  E. J. Berquist,  
 K. B. Bravaya,  H. Burton,  D. Casanova,  Chun-Min Chang,  Yunqing Chen,  
 A. Chien,  K. D. Closser,  M. P. Coons,  S. Coriani,  S. Dasgupta,  
 A. L. Dempwolff,  M. Diedenhofen,  Hainam Do,  R. G. Edgar,  Po-Tung Fang,  
 S. Faraji,  S. Fatehi,  Qingguo Feng,  K. D. Fenk,  J. Fosso-Tande,  
 J. Gayvert,  Qinghui Ge,  A. Ghysels,  G. Gidofalvi,  J. Gomes,  
 J. Gonthier,  A. Gunina,  D. Hait,  M. W. D. Hanson-Heine,  
 P. H. P. Harbach,  A. W. Hauser,  J. E. Herr,  E. G. Hohenstein,  
 Z. C. Holden,  Kerwin Hui,  B. C. Huynh,  T.-C. Jagau,  Hyunjun Ji,  
 B. Kaduk,  K. Khistyaev,  Jaehoon Kim,  P. Klunzinger,  K. Koh,  
 D. Kosenkov,  L. Koulias,  T. Kowalczyk,  C. M. Krauter,  A. Kunitsa,  
 Ka Un Lao,  A. Laurent,  K. V. Lawler,  Joonho Lee,  D. Lefrancois,  
 S. Lehtola,  D. S. Levine,  Yi-Pei Li,  You-Sheng Lin,  Fenglai Liu,  
 E. Livshits,  A. Luenser,  P. Manohar,  E. Mansoor,  S. F. Manzer,  
 Shan-Ping Mao,  Yuezhi Mao,  N. Mardirossian,  A. V. Marenich,  
 T. Markovich,  L. A. Martinez-Martinez,  S. A. Maurer,  N. J. Mayhall,  
 S. C. McKenzie,  J.-M. Mewes,  A. F. Morrison,  J. W. Mullinax,  K. Nanda,  
 T. S. Nguyen-Beck,  R. Olivares-Amaya,  J. A. Parkhill,  T. M. Perrine,  
 F. Plasser,  P. Pokhilko,  S. Prager,  A. Prociuk,  E. Ramos,  D. R. Rehn,  
 F. Rob,  M. Schneider,  N. Sergueev,  S. M. Sharada,  S. Sharma,  
 D. W. Small,  T. Stauch,  T. Stein,  Yu-Chuan Su,  A. J. W. Thom,  
 A. Tkatchenko,  T. Tsuchimochi,  N. M. Tubman,  L. Vogt,  M. L. Vidal,  
 O. Vydrov,  M. A. Watson,  J. Wenzel,  M. de Wergifosse,  T. A. Wesolowski,  
 A. White,  J. Witte,  A. Yamada,  Jun Yang,  K. Yao,  S. Yeganeh,  
 S. R. Yost,  Zhi-Qiang You,  A. Zech,  Igor Ying Zhang,  Xing Zhang,  
 Yan Zhao,  Ying Zhu,  B. R. Brooks,  G. K. L. Chan,  C. J. Cramer,  
 M. S. Gordon,  W. J. Hehre,  A. Klamt,  M. W. Schmidt,  C. D. Sherrill,  
 D. G. Truhlar,  A. Aspuru-Guzik,  R. Baer,  A. T. Bell,  N. A. Besley,  
 Jeng-Da Chai,  A. E. DePrince, III,  R. A. DiStasio Jr.,  A. Dreuw,  
 B. D. Dunietz,  T. R. Furlani,  Chao-Ping Hsu,  Yousung Jung,  Jing Kong,  
 D. S. Lambrecht,  WanZhen Liang,  C. Ochsenfeld,  V. A. Rassolov,  
 L. V. Slipchenko,  J. E. Subotnik,  T. Van Voorhis,  J. M. Herbert,  
 A. I. Krylov,  P. M. W. Gill,  M. Head-Gordon

 Contributors to earlier versions of Q-Chem not listed above: 
 R. D. Adamson,  B. Austin,  J. Baker,  G. J. O. Beran,  K. Brandhorst,  
 S. T. Brown,  E. F. C. Byrd,  A. K. Chakraborty,  C.-L. Cheng,  
 Siu Hung Chien,  D. M. Chipman,  D. L. Crittenden,  H. Dachsel,  
 R. J. Doerksen,  A. D. Dutoi,  L. Fusti-Molnar,  W. A. Goddard III,  
 A. Golubeva-Zadorozhnaya,  S. R. Gwaltney,  G. Hawkins,  A. Heyden,  
 S. Hirata,  G. Kedziora,  F. J. Keil,  C. Kelley,  Jihan Kim,  R. A. King,  
 R. Z. Khaliullin,  P. P. Korambath,  W. Kurlancheek,  A. M. Lee,  M. S. Lee,  
 S. V. Levchenko,  Ching Yeh Lin,  D. Liotard,  R. C. Lochan,  I. Lotan,  
 P. E. Maslen,  N. Nair,  D. P. O'Neill,  D. Neuhauser,  E. Neuscamman,  
 C. M. Oana,  R. Olson,  B. Peters,  R. Peverati,  P. A. Pieniazek,  
 Y. M. Rhee,  J. Ritchie,  M. A. Rohrdanz,  E. Rosta,  N. J. Russ,  
 H. F. Schaefer III,  N. E. Schultz,  N. Shenvi,  A. C. Simmonett,  A. Sodt,  
 D. Stuck,  K. S. Thanthiriwatte,  V. Vanovschi,  Tao Wang,  A. Warshel,  
 C. F. Williams,  Q. Wu,  X. Xu,  W. Zhang

 Please cite Q-Chem as follows:
 Y. Shao et al., Mol. Phys. 113, 184-215 (2015)
 DOI: 10.1080/00268976.2014.952696

 Q-Chem 5.1.2 for Intel X86 EM64T Linux

 Parts of Q-Chem use Armadillo 8.300.2 (Tropical Shenanigans).
 http://arma.sourceforge.net/

 Q-Chem begins on Wed Jul  3 18:16:25 2019  

Host: 
0

     Scratch files written to /scratch/xuedong/qchem34525//
 Dec218 |scratch|qcdevops|jenkins|workspace|build_RNUM 6581   
Processing $rem in /home/qwang/software/qchem5.1.2/config/preferences.
 MEM_TOTAL  4000 
Core orbitals will be frozen
Input Ideriv = 1
Curr. Ideriv = -1
Max.  Ideriv = 1

Checking the input file for inconsistencies... 	...done.

--------------------------------------------------------------
User input:
--------------------------------------------------------------

$molecule
0 1
Si     3.762272567     0.100944777     0.006072646
H     3.981291986     1.564414477     0.064186564
H     4.389924271    -0.416429655    -1.231422106
H     4.439607953    -0.519141536     1.167849490
C     1.925645521    -0.291305561     0.027271718
H     1.759401550    -1.366486120    -0.015128601
H     1.421772543     0.162315456    -0.824405717
H     1.458679937     0.087942478     0.934592371
@Si   -3.758486005    -0.118812974     0.010320332
@H    -3.988179326    -1.397715612    -0.700161430
@H    -4.561938445     0.934142785    -0.652089850
@H    -4.238927311    -0.265809400     1.403401428
@C    -1.934888918     0.329646366    -0.013674007
@H    -1.760507173     1.269465636     0.507577091
@H    -1.576224329     0.438864182    -1.035763281
@H    -1.338520617    -0.441255146     0.470998256
$end

$rem
BASIS = aug-cc-pVTZ
JOB_TYPE  =  SP
METHOD  =  MP2
SCF_MAX_CYCLES  =  200
$end

--------------------------------------------------------------
 ----------------------------------------------------------------
             Standard Nuclear Orientation (Angstroms)
    I     Atom           X                Y                Z
 ----------------------------------------------------------------
    1      Si      3.7622725670     0.1009447770     0.0060726460
    2      H       3.9812919860     1.5644144770     0.0641865640
    3      H       4.3899242710    -0.4164296550    -1.2314221060
    4      H       4.4396079530    -0.5191415360     1.1678494900
    5      C       1.9256455210    -0.2913055610     0.0272717180
    6      H       1.7594015500    -1.3664861200    -0.0151286010
    7      H       1.4217725430     0.1623154560    -0.8244057170
    8      H       1.4586799370     0.0879424780     0.9345923710
    9      GH     -3.7584860050    -0.1188129740     0.0103203320
   10      GH     -3.9881793260    -1.3977156120    -0.7001614300
   11      GH     -4.5619384450     0.9341427850    -0.6520898500
   12      GH     -4.2389273110    -0.2658094000     1.4034014280
   13      GH     -1.9348889180     0.3296463660    -0.0136740070
   14      GH     -1.7605071730     1.2694656360     0.5075770910
   15      GH     -1.5762243290     0.4388641820    -1.0357632810
   16      GH     -1.3385206170    -0.4412551460     0.4709982560
 ----------------------------------------------------------------
 Nuclear Repulsion Energy =    62.8465305472 hartrees
 There are       13 alpha and       13 beta electrons
 Requested basis set is aug-cc-pVTZ
 There are 168 shells and 468 basis functions

 Total QAlloc Memory Limit   4000 MB
 Mega-Array Size       188 MB
 MEM_STATIC part       192 MB
 A cutoff of  1.0D-08 yielded  11195 shell pairs
 There are     83305 function pairs (    105595 Cartesian)
 
 -------------------------------------------------------
 OpenMP Integral Computing Module                       
 Release: version 1.0, May 2013, Q-Chem Inc. Pittsburgh 
 -------------------------------------------------------
 Integral Job Info:
 Integral job number is                      11
 Integral operator is                         1
 short-range coefficients                     0
 long-range coefficients              100000000
 Omega coefficients                           0
 if combine SR and LR in K                    0
 Integral screening is                        0
 Integral computing path is                   2
 max size of driver memory is            800000
 size of driver memory is                776718
 size of scratch memory is             29531563
 max col of scratch BK array              10000
 max len of scratch array in speh3          662
 max len of scratch index in speh4           32
 max int batch size is                      520
 min int batch size is                       52
 fixed nKL is                                31
 max L of basis functions is                  3
 order of int derivative is                   0
 number of shells is                        168
 number of basis is                         528
 number of cartesian basis is               528
 number of contracted shell pairs         11195
 number of primitive shell pairs          29772
 maxK2 (contraction) of shell pair          169
 max number of K2 of shell pair               1
 max number of CS2 of shell pair           2142
 max number of PS2 of shell pair           2782
 mem total for path MDJ                  775340
 -------------------------------------------------------
 Smallest overlap matrix eigenvalue = 1.14E-05

 Q-Chem warning in module stvman/mkSTV.C, line 306:

 Overlap eigenvalue is smaller than square root of threshold
 Use THRESH >= 12 to get rid of this warning


 Scale SEOQF with 1.000000e-01/1.000000e-01/1.000000e-01

 Standard Electronic Orientation quadrupole field applied
 Nucleus-field energy     =     0.0000000100 hartrees
 Guess from superposition of atomic densities
 Warning:  Energy on first SCF cycle will be non-variational
 SAD guess density has 26.000000 electrons

 -----------------------------------------------------------------------
  General SCF calculation program by
  Eric Jon Sundstrom, Paul Horn, Yuezhi Mao, Dmitri Zuev, Alec White,
  David Stuck, Shaama M.S., Shane Yost, Joonho Lee, David Small,
  Daniel Levine, Susi Lehtola, Hugh Burton, Evgeny Epifanovsky
 -----------------------------------------------------------------------
 Hartree-Fock
 using 6 threads for integral computing
 -------------------------------------------------------
 OpenMP Integral computing Module                
 Release: version 1.0, May 2013, Q-Chem Inc. Pittsburgh 
 -------------------------------------------------------
 A restricted SCF calculation will be
 performed using DIIS
 SCF converges when DIIS error is below 1.0e-05
 ---------------------------------------
  Cycle       Energy         DIIS error
 ---------------------------------------
    1    -330.4723929618      1.04e-02  
    2    -330.2950680632      7.86e-04  
    3    -330.3203265443      2.33e-04  
    4    -330.3227995864      9.49e-05  
    5    -330.3231661196      1.18e-05  
    6    -330.3231772612      2.48e-06  Convergence criterion met
 ---------------------------------------
 SCF time:   CPU 402.58s  wall 67.00s 
 SCF   energy in the final basis set =     -330.3231772612
 Total energy in the final basis set =     -330.3231772612
 
 Components of the MP2 correlation energy:
        aaaa  correlation energy =        -0.0278546639 au
        abab  correlation energy =        -0.2680436939 au
        bbbb  correlation energy =        -0.0278546639 au
        non-Brillouin singles    =        -0.0000000000 au

 Total  MP2   correlation energy =                    -0.32375302 au
        MP2         total energy =                  -330.64693028 au
 
 --------------------------------------------------------------
 
                    Orbital Energies (a.u.)
 --------------------------------------------------------------
 
 Alpha MOs
 -- Occupied --
-68.766 -11.208  -6.115  -4.221  -4.221  -4.220  -0.950  -0.699
 -0.565  -0.565  -0.469  -0.469  -0.455
 -- Virtual --
  0.019   0.034   0.037   0.038   0.043   0.052   0.054   0.060
  0.064   0.068   0.071   0.074   0.078   0.085   0.086   0.088
  0.101   0.105   0.117   0.121   0.123   0.129   0.142   0.145
  0.145   0.157   0.160   0.164   0.170   0.175   0.188   0.193
  0.197   0.202   0.203   0.209   0.214   0.225   0.236   0.241
  0.241   0.250   0.251   0.259   0.271   0.278   0.286   0.289
  0.294   0.301   0.302   0.307   0.308   0.315   0.316   0.328
  0.333   0.337   0.341   0.343   0.344   0.350   0.359   0.362
  0.368   0.377   0.385   0.390   0.404   0.407   0.414   0.418
  0.426   0.429   0.436   0.439   0.441   0.447   0.452   0.464
  0.472   0.475   0.479   0.481   0.483   0.488   0.498   0.507
  0.512   0.514   0.517   0.530   0.537   0.545   0.548   0.564
  0.574   0.582   0.587   0.596   0.606   0.610   0.623   0.631
  0.640   0.652   0.655   0.657   0.663   0.669   0.678   0.686
  0.690   0.698   0.699   0.706   0.713   0.737   0.743   0.754
  0.771   0.781   0.783   0.793   0.801   0.812   0.824   0.834
  0.842   0.845   0.852   0.864   0.870   0.894   0.900   0.906
  0.922   0.924   0.929   0.933   0.942   0.951   0.959   0.979
  0.982   0.994   1.001   1.006   1.013   1.020   1.026   1.035
  1.042   1.050   1.053   1.062   1.066   1.077   1.083   1.087
  1.095   1.104   1.106   1.118   1.127   1.139   1.141   1.146
  1.152   1.152   1.164   1.166   1.167   1.173   1.181   1.185
  1.190   1.194   1.198   1.214   1.216   1.222   1.226   1.229
  1.240   1.251   1.265   1.267   1.273   1.289   1.297   1.308
  1.313   1.319   1.333   1.339   1.344   1.350   1.360   1.365
  1.372   1.389   1.395   1.401   1.406   1.412   1.416   1.424
  1.431   1.437   1.443   1.448   1.454   1.464   1.471   1.484
  1.500   1.504   1.511   1.532   1.546   1.550   1.561   1.579
  1.593   1.607   1.617   1.626   1.636   1.653   1.663   1.665
  1.681   1.691   1.700   1.704   1.730   1.737   1.750   1.780
  1.789   1.792   1.808   1.825   1.829   1.843   1.870   1.883
  1.885   1.899   1.922   1.929   1.941   1.954   1.968   1.992
  2.021   2.027   2.033   2.041   2.050   2.062   2.068   2.078
  2.081   2.097   2.127   2.137   2.146   2.158   2.168   2.178
  2.201   2.208   2.230   2.279   2.284   2.296   2.312   2.340
  2.360   2.371   2.396   2.419   2.437   2.447   2.478   2.483
  2.515   2.551   2.556   2.567   2.691   2.696   2.780   2.797
  2.804   2.811   2.997   3.007   3.104   3.109   3.159   3.188
  3.343   3.424   3.432   3.457   3.571   3.581   3.615   3.682
  3.684   3.700   3.716   3.721   3.770   3.779   3.846   3.875
  3.889   3.950   3.956   3.963   3.993   4.031   4.050   4.063
  4.088   4.095   4.101   4.108   4.112   4.132   4.136   4.138
  4.143   4.167   4.172   4.180   4.197   4.217   4.217   4.232
  4.244   4.244   4.262   4.283   4.294   4.334   4.337   4.341
  4.364   4.366   4.370   4.375   4.395   4.415   4.447   4.451
  4.489   4.502   4.512   4.527   4.532   4.538   4.544   4.564
  4.570   4.579   4.600   4.606   4.610   4.636   4.650   4.655
  4.658   4.668   4.732   4.736   4.775   4.782   4.789   4.806
  4.809   4.827   4.864   4.884   4.896   4.900   4.911   4.919
  4.942   4.994   5.008   5.036   5.037   5.056   5.069   5.167
  5.172   5.173   5.177   5.223   5.237   5.244   5.265   5.299
  5.303   5.347   5.348   5.350   5.363   5.378   5.471   5.476
  5.498   5.506   5.556   5.578   5.610   5.613   5.650   5.654
  5.674   5.761   5.955   6.067   6.117   6.139   6.152   6.156
  6.160   6.195   6.203   6.217   6.711   6.717   6.780   6.781
  7.089   7.478   7.814   7.819   8.193   8.207   9.147  10.344
 15.234  17.455  20.449  20.462  20.847  51.999 107.004
 --------------------------------------------------------------
 
          Ground-State Mulliken Net Atomic Charges

     Atom                 Charge (a.u.)
  ----------------------------------------
      1 Si                    1.283687
      2 H                    -0.377020
      3 H                    -0.393489
      4 H                    -0.391822
      5 C                    -1.095904
      6 H                     0.319693
      7 H                     0.339783
      8 H                     0.315682
      9 GH                    0.001121
     10 GH                   -0.000011
     11 GH                    0.000176
     12 GH                    0.000066
     13 GH                    0.006401
     14 GH                    0.000605
     15 GH                   -0.002678
     16 GH                   -0.006289
  ----------------------------------------
  Sum of atomic charges =    -0.000001

 -----------------------------------------------------------------
                    Cartesian Multipole Moments
 -----------------------------------------------------------------
    Charge (ESU x 10^10)
                -0.0000
    Dipole Moment (Debye)
         X      -0.6928      Y      -0.1486      Z       0.0081
       Tot       0.7086
    Quadrupole Moments (Debye-Ang)
        XX     -28.0088     XY      -0.5301     YY     -23.2868
        XZ       0.0210     YZ      -0.0003     ZZ     -23.2815
    Octopole Moments (Debye-Ang^2)
       XXX    -245.6519    XXY      -0.2900    XYY     -75.6393
       YYY      -1.5775    XXZ      -0.3309    XYZ       0.0521
       YYZ      -0.5227    XZZ     -76.7381    YZZ       1.9293
       ZZZ      -0.5478
    Hexadecapole Moments (Debye-Ang^3)
      XXXX   -1685.6227   XXXY      -3.7065   XXYY    -284.5949
      XYYY     -16.8404   YYYY     -61.8423   XXXZ      -2.8569
      XXYZ       0.3897   XYYZ      -1.4383   YYYZ       0.1525
      XXZZ    -290.5003   XYZZ       1.9270   YYZZ     -20.0827
      XZZZ      -1.2268   YZZZ       0.2075   ZZZZ     -57.0964
 -----------------------------------------------------------------
Archival summary:
1\1\mm2.localdomain\SP\MP2\BasisUnspecified\i116h8\xuedong\WedJul318:23:222019WedJul318:23:222019\0\\#,MP2,BasisUnspecified,\\0,1\Si\H,1,1.48088\H,1,1.48088,2,108.387\H,1,1.48091,2,108.383,3,-117.43,0\C,1,1.87817,2,110.546,3,121.3,0\H,5,1.08858,1,110.902,2,179.974,0\H,5,1.08863,1,110.862,2,60.0552,0\H,5,1.08878,1,110.8,2,-59.9955,0\Gh,7,2.88432,5,102.598,1,174.139,0\Gh,9,1.08851,7,118.226,5,-90.4978,0\Gh,10,1.08869,9,107.974,7,66.5922,0\Gh,10,1.08875,9,108.084,7,-50.0807,0\Gh,10,1.87808,9,110.927,7,-171.768,0\Gh,13,1.48089,10,110.567,9,-179.937,0\Gh,13,1.48091,10,110.532,9,60.0505,0\Gh,13,1.48092,10,110.529,9,-59.9311,0\\HF=-330.323177\MP2=-330.64693\\@

 Total job time:  416.68s(wall), 2492.23s(cpu) 
 Wed Jul  3 18:23:22 2019

        *************************************************************
        *                                                           *
        *  Thank you very much for using Q-Chem.  Have a nice day.  *
        *                                                           *
        *************************************************************



Running Job 3 of 3 ../qm_inp/SiH3CH3_SiH3CH3_con3.100.qcinp
qchem ../qm_inp/SiH3CH3_SiH3CH3_con3.100.qcinp_34525.2 /scratch/xuedong/qchem34525/ 1
/home/qwang/software/qchem5.1.2/exe/qcprog.exe_s ../qm_inp/SiH3CH3_SiH3CH3_con3.100.qcinp_34525.2 /scratch/xuedong/qchem34525/
Check license passed

                  Welcome to Q-Chem
     A Quantum Leap Into The Future Of Chemistry


 Q-Chem 5.1, Q-Chem, Inc., Pleasanton, CA (2018)

 Yihan Shao,  Zhengting Gan,  E. Epifanovsky,  A. T. B. Gilbert,  M. Wormit,  
 J. Kussmann,  A. W. Lange,  A. Behn,  Jia Deng,  Xintian Feng,  D. Ghosh,  
 M. Goldey,  P. R. Horn,  L. D. Jacobson,  I. Kaliman,  T. Kus,  A. Landau,  
 Jie Liu,  E. I. Proynov,  R. M. Richard,  R. P. Steele,  E. J. Sundstrom,  
 H. L. Woodcock III,  P. M. Zimmerman,  D. Zuev,  B. Albrecht,  E. Alguire,  
 S. A. Baeppler,  D. Barton,  Z. Benda,  Y. A. Bernard,  E. J. Berquist,  
 K. B. Bravaya,  H. Burton,  D. Casanova,  Chun-Min Chang,  Yunqing Chen,  
 A. Chien,  K. D. Closser,  M. P. Coons,  S. Coriani,  S. Dasgupta,  
 A. L. Dempwolff,  M. Diedenhofen,  Hainam Do,  R. G. Edgar,  Po-Tung Fang,  
 S. Faraji,  S. Fatehi,  Qingguo Feng,  K. D. Fenk,  J. Fosso-Tande,  
 J. Gayvert,  Qinghui Ge,  A. Ghysels,  G. Gidofalvi,  J. Gomes,  
 J. Gonthier,  A. Gunina,  D. Hait,  M. W. D. Hanson-Heine,  
 P. H. P. Harbach,  A. W. Hauser,  J. E. Herr,  E. G. Hohenstein,  
 Z. C. Holden,  Kerwin Hui,  B. C. Huynh,  T.-C. Jagau,  Hyunjun Ji,  
 B. Kaduk,  K. Khistyaev,  Jaehoon Kim,  P. Klunzinger,  K. Koh,  
 D. Kosenkov,  L. Koulias,  T. Kowalczyk,  C. M. Krauter,  A. Kunitsa,  
 Ka Un Lao,  A. Laurent,  K. V. Lawler,  Joonho Lee,  D. Lefrancois,  
 S. Lehtola,  D. S. Levine,  Yi-Pei Li,  You-Sheng Lin,  Fenglai Liu,  
 E. Livshits,  A. Luenser,  P. Manohar,  E. Mansoor,  S. F. Manzer,  
 Shan-Ping Mao,  Yuezhi Mao,  N. Mardirossian,  A. V. Marenich,  
 T. Markovich,  L. A. Martinez-Martinez,  S. A. Maurer,  N. J. Mayhall,  
 S. C. McKenzie,  J.-M. Mewes,  A. F. Morrison,  J. W. Mullinax,  K. Nanda,  
 T. S. Nguyen-Beck,  R. Olivares-Amaya,  J. A. Parkhill,  T. M. Perrine,  
 F. Plasser,  P. Pokhilko,  S. Prager,  A. Prociuk,  E. Ramos,  D. R. Rehn,  
 F. Rob,  M. Schneider,  N. Sergueev,  S. M. Sharada,  S. Sharma,  
 D. W. Small,  T. Stauch,  T. Stein,  Yu-Chuan Su,  A. J. W. Thom,  
 A. Tkatchenko,  T. Tsuchimochi,  N. M. Tubman,  L. Vogt,  M. L. Vidal,  
 O. Vydrov,  M. A. Watson,  J. Wenzel,  M. de Wergifosse,  T. A. Wesolowski,  
 A. White,  J. Witte,  A. Yamada,  Jun Yang,  K. Yao,  S. Yeganeh,  
 S. R. Yost,  Zhi-Qiang You,  A. Zech,  Igor Ying Zhang,  Xing Zhang,  
 Yan Zhao,  Ying Zhu,  B. R. Brooks,  G. K. L. Chan,  C. J. Cramer,  
 M. S. Gordon,  W. J. Hehre,  A. Klamt,  M. W. Schmidt,  C. D. Sherrill,  
 D. G. Truhlar,  A. Aspuru-Guzik,  R. Baer,  A. T. Bell,  N. A. Besley,  
 Jeng-Da Chai,  A. E. DePrince, III,  R. A. DiStasio Jr.,  A. Dreuw,  
 B. D. Dunietz,  T. R. Furlani,  Chao-Ping Hsu,  Yousung Jung,  Jing Kong,  
 D. S. Lambrecht,  WanZhen Liang,  C. Ochsenfeld,  V. A. Rassolov,  
 L. V. Slipchenko,  J. E. Subotnik,  T. Van Voorhis,  J. M. Herbert,  
 A. I. Krylov,  P. M. W. Gill,  M. Head-Gordon

 Contributors to earlier versions of Q-Chem not listed above: 
 R. D. Adamson,  B. Austin,  J. Baker,  G. J. O. Beran,  K. Brandhorst,  
 S. T. Brown,  E. F. C. Byrd,  A. K. Chakraborty,  C.-L. Cheng,  
 Siu Hung Chien,  D. M. Chipman,  D. L. Crittenden,  H. Dachsel,  
 R. J. Doerksen,  A. D. Dutoi,  L. Fusti-Molnar,  W. A. Goddard III,  
 A. Golubeva-Zadorozhnaya,  S. R. Gwaltney,  G. Hawkins,  A. Heyden,  
 S. Hirata,  G. Kedziora,  F. J. Keil,  C. Kelley,  Jihan Kim,  R. A. King,  
 R. Z. Khaliullin,  P. P. Korambath,  W. Kurlancheek,  A. M. Lee,  M. S. Lee,  
 S. V. Levchenko,  Ching Yeh Lin,  D. Liotard,  R. C. Lochan,  I. Lotan,  
 P. E. Maslen,  N. Nair,  D. P. O'Neill,  D. Neuhauser,  E. Neuscamman,  
 C. M. Oana,  R. Olson,  B. Peters,  R. Peverati,  P. A. Pieniazek,  
 Y. M. Rhee,  J. Ritchie,  M. A. Rohrdanz,  E. Rosta,  N. J. Russ,  
 H. F. Schaefer III,  N. E. Schultz,  N. Shenvi,  A. C. Simmonett,  A. Sodt,  
 D. Stuck,  K. S. Thanthiriwatte,  V. Vanovschi,  Tao Wang,  A. Warshel,  
 C. F. Williams,  Q. Wu,  X. Xu,  W. Zhang

 Please cite Q-Chem as follows:
 Y. Shao et al., Mol. Phys. 113, 184-215 (2015)
 DOI: 10.1080/00268976.2014.952696

 Q-Chem 5.1.2 for Intel X86 EM64T Linux

 Parts of Q-Chem use Armadillo 8.300.2 (Tropical Shenanigans).
 http://arma.sourceforge.net/

 Q-Chem begins on Wed Jul  3 18:23:22 2019  

Host: 
0

     Scratch files written to /scratch/xuedong/qchem34525//
 Dec218 |scratch|qcdevops|jenkins|workspace|build_RNUM 6581   
Processing $rem in /home/qwang/software/qchem5.1.2/config/preferences.
 MEM_TOTAL  4000 
Core orbitals will be frozen
Input Ideriv = 1
Curr. Ideriv = -1
Max.  Ideriv = 1

Checking the input file for inconsistencies... 	...done.

--------------------------------------------------------------
User input:
--------------------------------------------------------------

$molecule
0 1
@Si    3.762272567     0.100944777     0.006072646
@H     3.981291986     1.564414477     0.064186564
@H     4.389924271    -0.416429655    -1.231422106
@H     4.439607953    -0.519141536     1.167849490
@C     1.925645521    -0.291305561     0.027271718
@H     1.759401550    -1.366486120    -0.015128601
@H     1.421772543     0.162315456    -0.824405717
@H     1.458679937     0.087942478     0.934592371
Si   -3.758486005    -0.118812974     0.010320332
H    -3.988179326    -1.397715612    -0.700161430
H    -4.561938445     0.934142785    -0.652089850
H    -4.238927311    -0.265809400     1.403401428
C    -1.934888918     0.329646366    -0.013674007
H    -1.760507173     1.269465636     0.507577091
H    -1.576224329     0.438864182    -1.035763281
H    -1.338520617    -0.441255146     0.470998256
$end

$rem
BASIS = aug-cc-pVTZ
JOB_TYPE  =  SP
METHOD  =  MP2
SCF_MAX_CYCLES  =  200
$end

--------------------------------------------------------------
 ----------------------------------------------------------------
             Standard Nuclear Orientation (Angstroms)
    I     Atom           X                Y                Z
 ----------------------------------------------------------------
    1      GH      3.7622725670     0.1009447770     0.0060726460
    2      GH      3.9812919860     1.5644144770     0.0641865640
    3      GH      4.3899242710    -0.4164296550    -1.2314221060
    4      GH      4.4396079530    -0.5191415360     1.1678494900
    5      GH      1.9256455210    -0.2913055610     0.0272717180
    6      GH      1.7594015500    -1.3664861200    -0.0151286010
    7      GH      1.4217725430     0.1623154560    -0.8244057170
    8      GH      1.4586799370     0.0879424780     0.9345923710
    9      Si     -3.7584860050    -0.1188129740     0.0103203320
   10      H      -3.9881793260    -1.3977156120    -0.7001614300
   11      H      -4.5619384450     0.9341427850    -0.6520898500
   12      H      -4.2389273110    -0.2658094000     1.4034014280
   13      C      -1.9348889180     0.3296463660    -0.0136740070
   14      H      -1.7605071730     1.2694656360     0.5075770910
   15      H      -1.5762243290     0.4388641820    -1.0357632810
   16      H      -1.3385206170    -0.4412551460     0.4709982560
 ----------------------------------------------------------------
 Nuclear Repulsion Energy =    62.8472945223 hartrees
 There are       13 alpha and       13 beta electrons
 Requested basis set is aug-cc-pVTZ
 There are 168 shells and 468 basis functions

 Total QAlloc Memory Limit   4000 MB
 Mega-Array Size       188 MB
 MEM_STATIC part       192 MB
 A cutoff of  1.0D-08 yielded  11195 shell pairs
 There are     83305 function pairs (    105595 Cartesian)
 
 -------------------------------------------------------
 OpenMP Integral Computing Module                       
 Release: version 1.0, May 2013, Q-Chem Inc. Pittsburgh 
 -------------------------------------------------------
 Integral Job Info:
 Integral job number is                      11
 Integral operator is                         1
 short-range coefficients                     0
 long-range coefficients              100000000
 Omega coefficients                           0
 if combine SR and LR in K                    0
 Integral screening is                        0
 Integral computing path is                   2
 max size of driver memory is            800000
 size of driver memory is                776718
 size of scratch memory is             29531563
 max col of scratch BK array              10000
 max len of scratch array in speh3          662
 max len of scratch index in speh4           32
 max int batch size is                      520
 min int batch size is                       52
 fixed nKL is                                31
 max L of basis functions is                  3
 order of int derivative is                   0
 number of shells is                        168
 number of basis is                         528
 number of cartesian basis is               528
 number of contracted shell pairs         11195
 number of primitive shell pairs          29772
 maxK2 (contraction) of shell pair          169
 max number of K2 of shell pair               1
 max number of CS2 of shell pair           2142
 max number of PS2 of shell pair           2782
 mem total for path MDJ                  775340
 -------------------------------------------------------
 Smallest overlap matrix eigenvalue = 1.14E-05

 Q-Chem warning in module stvman/mkSTV.C, line 306:

 Overlap eigenvalue is smaller than square root of threshold
 Use THRESH >= 12 to get rid of this warning


 Scale SEOQF with 1.000000e-01/1.000000e-01/1.000000e-01

 Standard Electronic Orientation quadrupole field applied
 Nucleus-field energy     =     0.0000000100 hartrees
 Guess from superposition of atomic densities
 Warning:  Energy on first SCF cycle will be non-variational
 SAD guess density has 26.000000 electrons

 -----------------------------------------------------------------------
  General SCF calculation program by
  Eric Jon Sundstrom, Paul Horn, Yuezhi Mao, Dmitri Zuev, Alec White,
  David Stuck, Shaama M.S., Shane Yost, Joonho Lee, David Small,
  Daniel Levine, Susi Lehtola, Hugh Burton, Evgeny Epifanovsky
 -----------------------------------------------------------------------
 Hartree-Fock
 using 6 threads for integral computing
 -------------------------------------------------------
 OpenMP Integral computing Module                
 Release: version 1.0, May 2013, Q-Chem Inc. Pittsburgh 
 -------------------------------------------------------
 A restricted SCF calculation will be
 performed using DIIS
 SCF converges when DIIS error is below 1.0e-05
 ---------------------------------------
  Cycle       Energy         DIIS error
 ---------------------------------------
    1    -330.4724865576      1.04e-02  
    2    -330.2950664708      7.86e-04  
    3    -330.3203246655      2.33e-04  
    4    -330.3227976305      9.49e-05  
    5    -330.3231641342      1.18e-05  
    6    -330.3231752776      2.48e-06  Convergence criterion met
 ---------------------------------------
 SCF time:   CPU 402.36s  wall 67.00s 
 SCF   energy in the final basis set =     -330.3231752776
 Total energy in the final basis set =     -330.3231752776
 
 Components of the MP2 correlation energy:
        aaaa  correlation energy =        -0.0278544580 au
        abab  correlation energy =        -0.2680384139 au
        bbbb  correlation energy =        -0.0278544580 au
        non-Brillouin singles    =        -0.0000000000 au

 Total  MP2   correlation energy =                    -0.32374733 au
        MP2         total energy =                  -330.64692261 au
 
 --------------------------------------------------------------
 
                    Orbital Energies (a.u.)
 --------------------------------------------------------------
 
 Alpha MOs
 -- Occupied --
-68.766 -11.208  -6.115  -4.221  -4.221  -4.220  -0.950  -0.699
 -0.565  -0.565  -0.469  -0.469  -0.455
 -- Virtual --
  0.019   0.034   0.037   0.038   0.043   0.052   0.054   0.061
  0.064   0.068   0.071   0.074   0.077   0.086   0.086   0.088
  0.101   0.105   0.113   0.122   0.125   0.128   0.143   0.145
  0.149   0.156   0.160   0.165   0.168   0.175   0.186   0.191
  0.198   0.202   0.206   0.209   0.215   0.224   0.238   0.239
  0.242   0.248   0.254   0.260   0.269   0.274   0.288   0.291
  0.294   0.299   0.305   0.305   0.309   0.312   0.320   0.328
  0.332   0.338   0.339   0.343   0.348   0.353   0.357   0.362
  0.364   0.378   0.385   0.388   0.402   0.409   0.415   0.420
  0.423   0.429   0.437   0.439   0.440   0.451   0.453   0.460
  0.470   0.471   0.479   0.481   0.488   0.490   0.503   0.508
  0.511   0.513   0.519   0.526   0.538   0.545   0.548   0.557
  0.569   0.583   0.591   0.594   0.604   0.616   0.623   0.630
  0.647   0.648   0.656   0.658   0.663   0.669   0.681   0.685
  0.691   0.699   0.704   0.710   0.713   0.732   0.742   0.758
  0.762   0.778   0.788   0.793   0.807   0.813   0.819   0.831
  0.841   0.842   0.851   0.856   0.873   0.897   0.902   0.912
  0.914   0.922   0.930   0.936   0.940   0.953   0.958   0.967
  0.979   0.997   1.001   1.008   1.016   1.018   1.028   1.036
  1.039   1.047   1.055   1.059   1.072   1.074   1.079   1.095
  1.099   1.101   1.108   1.121   1.131   1.138   1.141   1.145
  1.154   1.158   1.160   1.161   1.169   1.176   1.180   1.184
  1.187   1.196   1.199   1.208   1.214   1.220   1.228   1.234
  1.249   1.250   1.253   1.272   1.276   1.279   1.289   1.306
  1.312   1.318   1.331   1.342   1.348   1.350   1.360   1.362
  1.380   1.387   1.393   1.402   1.402   1.413   1.416   1.425
  1.434   1.442   1.445   1.454   1.460   1.462   1.472   1.487
  1.491   1.506   1.521   1.532   1.534   1.546   1.560   1.563
  1.601   1.602   1.619   1.623   1.636   1.647   1.657   1.670
  1.677   1.692   1.705   1.708   1.727   1.739   1.767   1.778
  1.787   1.798   1.806   1.815   1.834   1.850   1.868   1.888
  1.897   1.908   1.920   1.927   1.938   1.957   1.973   2.007
  2.015   2.026   2.029   2.040   2.047   2.059   2.068   2.078
  2.086   2.098   2.111   2.135   2.151   2.167   2.172   2.177
  2.192   2.196   2.241   2.280   2.283   2.295   2.303   2.332
  2.356   2.373   2.385   2.406   2.447   2.455   2.485   2.492
  2.506   2.548   2.558   2.570   2.691   2.702   2.776   2.789
  2.804   2.813   2.998   3.003   3.106   3.109   3.144   3.194
  3.332   3.426   3.434   3.455   3.572   3.579   3.618   3.659
  3.689   3.692   3.715   3.719   3.769   3.776   3.848   3.864
  3.930   3.955   3.956   3.964   3.993   4.023   4.059   4.067
  4.082   4.098   4.103   4.113   4.125   4.128   4.133   4.138
  4.143   4.158   4.176   4.187   4.198   4.215   4.218   4.229
  4.239   4.244   4.268   4.286   4.296   4.333   4.335   4.337
  4.361   4.365   4.370   4.382   4.398   4.418   4.433   4.444
  4.481   4.494   4.509   4.524   4.533   4.541   4.544   4.561
  4.573   4.581   4.599   4.606   4.612   4.635   4.650   4.656
  4.658   4.661   4.727   4.740   4.774   4.778   4.790   4.805
  4.816   4.829   4.868   4.884   4.895   4.902   4.915   4.927
  4.936   4.983   5.010   5.035   5.041   5.053   5.062   5.165
  5.168   5.177   5.177   5.223   5.244   5.246   5.266   5.294
  5.303   5.346   5.347   5.349   5.362   5.390   5.470   5.477
  5.493   5.514   5.566   5.588   5.611   5.618   5.648   5.660
  5.671   5.767   5.952   6.072   6.122   6.135   6.147   6.152
  6.156   6.195   6.198   6.214   6.712   6.717   6.769   6.786
  7.099   7.476   7.812   7.817   8.180   8.216   9.140  10.372
 15.243  17.359  20.449  20.460  20.854  52.178 107.006
 --------------------------------------------------------------
 
          Ground-State Mulliken Net Atomic Charges

     Atom                 Charge (a.u.)
  ----------------------------------------
      1 GH                    0.000794
      2 GH                   -0.000090
      3 GH                    0.000094
      4 GH                    0.000100
      5 GH                    0.001827
      6 GH                    0.000970
      7 GH                   -0.001353
      8 GH                   -0.001853
      9 Si                    1.305258
     10 H                    -0.379955
     11 H                    -0.393836
     12 H                    -0.391315
     13 C                    -1.077846
     14 H                     0.309406
     15 H                     0.305938
     16 H                     0.321859
  ----------------------------------------
  Sum of atomic charges =    -0.000001

 -----------------------------------------------------------------
                    Cartesian Multipole Moments
 -----------------------------------------------------------------
    Charge (ESU x 10^10)
                -0.0000
    Dipole Moment (Debye)
         X       0.6886      Y       0.1706      Z      -0.0100
       Tot       0.7095
    Quadrupole Moments (Debye-Ang)
        XX     -27.9770     XY      -0.6083     YY     -23.2909
        XZ       0.0374     YZ       0.0023     ZZ     -23.2814
    Octopole Moments (Debye-Ang^2)
       XXX     245.6371    XXY       0.3398    XYY      75.9689
       YYY      -0.1320    XXZ      -0.0265    XYZ      -0.4290
       YYZ       1.7384    XZZ      76.2825    YZZ       0.1286
       ZZZ      -2.2144
    Hexadecapole Moments (Debye-Ang^3)
      XXXX   -1685.1866   XXXY      -4.1991   XXYY    -286.5616
      XYYY     -13.2346   YYYY     -63.7962   XXXZ       0.2273
      XXYZ       2.6587   XYYZ      -5.0937   YYYZ       0.4769
      XXZZ    -287.4472   XYZZ      -4.9368   YYZZ     -20.1296
      XZZZ       7.5566   YZZZ       0.0740   ZZZZ     -57.1093
 -----------------------------------------------------------------
Archival summary:
1\1\mm2.localdomain\SP\MP2\BasisUnspecified\i116h8\xuedong\WedJul318:30:192019WedJul318:30:192019\0\\#,MP2,BasisUnspecified,\\0,1\Si\H,1,1.48089\H,1,1.48091,2,108.381\H,1,1.48092,2,108.378,3,117.417,0\C,1,1.87808,2,110.567,3,-121.294,0\H,5,1.08851,1,110.927,2,-179.937,0\H,5,1.08869,1,110.845,2,-59.996,0\H,5,1.08875,1,110.826,2,59.9946,0\Gh,6,2.88432,5,118.226,1,-171.768,0\Gh,9,1.08863,6,102.598,5,-90.4978,0\Gh,10,1.08858,9,107.96,6,52.4778,0\Gh,10,1.08878,9,108.118,6,-64.2236,0\Gh,10,1.87817,9,110.862,6,174.139,0\Gh,13,1.48088,10,110.546,9,60.0552,0\Gh,13,1.48088,10,110.544,9,-179.931,0\Gh,13,1.48091,10,110.522,9,-59.9389,0\\HF=-330.323175\MP2=-330.646923\\@

 Total job time:  417.18s(wall), 2495.08s(cpu) 
 Wed Jul  3 18:30:19 2019

        *************************************************************
        *                                                           *
        *  Thank you very much for using Q-Chem.  Have a nice day.  *
        *                                                           *
        *************************************************************


