
Running Job 1 of 1 ../qm_inp/SiH3CH3_water.con2.105.qcinp
qchem ../qm_inp/SiH3CH3_water.con2.105.qcinp_12039.0 /scratch/xuedong/qchem12039/ 1
/home/qwang/software/qchem5.1.2/exe/qcprog.exe_s ../qm_inp/SiH3CH3_water.con2.105.qcinp_12039.0 /scratch/xuedong/qchem12039/
Check license passed

                  Welcome to Q-Chem
     A Quantum Leap Into The Future Of Chemistry


 Q-Chem 5.1, Q-Chem, Inc., Pleasanton, CA (2018)

 Yihan Shao,  Zhengting Gan,  E. Epifanovsky,  A. T. B. Gilbert,  M. Wormit,  
 J. Kussmann,  A. W. Lange,  A. Behn,  Jia Deng,  Xintian Feng,  D. Ghosh,  
 M. Goldey,  P. R. Horn,  L. D. Jacobson,  I. Kaliman,  T. Kus,  A. Landau,  
 Jie Liu,  E. I. Proynov,  R. M. Richard,  R. P. Steele,  E. J. Sundstrom,  
 H. L. Woodcock III,  P. M. Zimmerman,  D. Zuev,  B. Albrecht,  E. Alguire,  
 S. A. Baeppler,  D. Barton,  Z. Benda,  Y. A. Bernard,  E. J. Berquist,  
 K. B. Bravaya,  H. Burton,  D. Casanova,  Chun-Min Chang,  Yunqing Chen,  
 A. Chien,  K. D. Closser,  M. P. Coons,  S. Coriani,  S. Dasgupta,  
 A. L. Dempwolff,  M. Diedenhofen,  Hainam Do,  R. G. Edgar,  Po-Tung Fang,  
 S. Faraji,  S. Fatehi,  Qingguo Feng,  K. D. Fenk,  J. Fosso-Tande,  
 J. Gayvert,  Qinghui Ge,  A. Ghysels,  G. Gidofalvi,  J. Gomes,  
 J. Gonthier,  A. Gunina,  D. Hait,  M. W. D. Hanson-Heine,  
 P. H. P. Harbach,  A. W. Hauser,  J. E. Herr,  E. G. Hohenstein,  
 Z. C. Holden,  Kerwin Hui,  B. C. Huynh,  T.-C. Jagau,  Hyunjun Ji,  
 B. Kaduk,  K. Khistyaev,  Jaehoon Kim,  P. Klunzinger,  K. Koh,  
 D. Kosenkov,  L. Koulias,  T. Kowalczyk,  C. M. Krauter,  A. Kunitsa,  
 Ka Un Lao,  A. Laurent,  K. V. Lawler,  Joonho Lee,  D. Lefrancois,  
 S. Lehtola,  D. S. Levine,  Yi-Pei Li,  You-Sheng Lin,  Fenglai Liu,  
 E. Livshits,  A. Luenser,  P. Manohar,  E. Mansoor,  S. F. Manzer,  
 Shan-Ping Mao,  Yuezhi Mao,  N. Mardirossian,  A. V. Marenich,  
 T. Markovich,  L. A. Martinez-Martinez,  S. A. Maurer,  N. J. Mayhall,  
 S. C. McKenzie,  J.-M. Mewes,  A. F. Morrison,  J. W. Mullinax,  K. Nanda,  
 T. S. Nguyen-Beck,  R. Olivares-Amaya,  J. A. Parkhill,  T. M. Perrine,  
 F. Plasser,  P. Pokhilko,  S. Prager,  A. Prociuk,  E. Ramos,  D. R. Rehn,  
 F. Rob,  M. Schneider,  N. Sergueev,  S. M. Sharada,  S. Sharma,  
 D. W. Small,  T. Stauch,  T. Stein,  Yu-Chuan Su,  A. J. W. Thom,  
 A. Tkatchenko,  T. Tsuchimochi,  N. M. Tubman,  L. Vogt,  M. L. Vidal,  
 O. Vydrov,  M. A. Watson,  J. Wenzel,  M. de Wergifosse,  T. A. Wesolowski,  
 A. White,  J. Witte,  A. Yamada,  Jun Yang,  K. Yao,  S. Yeganeh,  
 S. R. Yost,  Zhi-Qiang You,  A. Zech,  Igor Ying Zhang,  Xing Zhang,  
 Yan Zhao,  Ying Zhu,  B. R. Brooks,  G. K. L. Chan,  C. J. Cramer,  
 M. S. Gordon,  W. J. Hehre,  A. Klamt,  M. W. Schmidt,  C. D. Sherrill,  
 D. G. Truhlar,  A. Aspuru-Guzik,  R. Baer,  A. T. Bell,  N. A. Besley,  
 Jeng-Da Chai,  A. E. DePrince, III,  R. A. DiStasio Jr.,  A. Dreuw,  
 B. D. Dunietz,  T. R. Furlani,  Chao-Ping Hsu,  Yousung Jung,  Jing Kong,  
 D. S. Lambrecht,  WanZhen Liang,  C. Ochsenfeld,  V. A. Rassolov,  
 L. V. Slipchenko,  J. E. Subotnik,  T. Van Voorhis,  J. M. Herbert,  
 A. I. Krylov,  P. M. W. Gill,  M. Head-Gordon

 Contributors to earlier versions of Q-Chem not listed above: 
 R. D. Adamson,  B. Austin,  J. Baker,  G. J. O. Beran,  K. Brandhorst,  
 S. T. Brown,  E. F. C. Byrd,  A. K. Chakraborty,  C.-L. Cheng,  
 Siu Hung Chien,  D. M. Chipman,  D. L. Crittenden,  H. Dachsel,  
 R. J. Doerksen,  A. D. Dutoi,  L. Fusti-Molnar,  W. A. Goddard III,  
 A. Golubeva-Zadorozhnaya,  S. R. Gwaltney,  G. Hawkins,  A. Heyden,  
 S. Hirata,  G. Kedziora,  F. J. Keil,  C. Kelley,  Jihan Kim,  R. A. King,  
 R. Z. Khaliullin,  P. P. Korambath,  W. Kurlancheek,  A. M. Lee,  M. S. Lee,  
 S. V. Levchenko,  Ching Yeh Lin,  D. Liotard,  R. C. Lochan,  I. Lotan,  
 P. E. Maslen,  N. Nair,  D. P. O'Neill,  D. Neuhauser,  E. Neuscamman,  
 C. M. Oana,  R. Olson,  B. Peters,  R. Peverati,  P. A. Pieniazek,  
 Y. M. Rhee,  J. Ritchie,  M. A. Rohrdanz,  E. Rosta,  N. J. Russ,  
 H. F. Schaefer III,  N. E. Schultz,  N. Shenvi,  A. C. Simmonett,  A. Sodt,  
 D. Stuck,  K. S. Thanthiriwatte,  V. Vanovschi,  Tao Wang,  A. Warshel,  
 C. F. Williams,  Q. Wu,  X. Xu,  W. Zhang

 Please cite Q-Chem as follows:
 Y. Shao et al., Mol. Phys. 113, 184-215 (2015)
 DOI: 10.1080/00268976.2014.952696

 Q-Chem 5.1.2 for Intel X86 EM64T Linux

 Parts of Q-Chem use Armadillo 8.300.2 (Tropical Shenanigans).
 http://arma.sourceforge.net/

 Q-Chem begins on Wed Jul 10 11:35:35 2019  

Host: 
0

     Scratch files written to /scratch/xuedong/qchem12039//
 Dec218 |scratch|qcdevops|jenkins|workspace|build_RNUM 6581   
Processing $rem in /home/qwang/software/qchem5.1.2/config/preferences.
 MEM_TOTAL  4000 
Core orbitals will be frozen
Input Ideriv = 1
Curr. Ideriv = -1
Max.  Ideriv = 1

Checking the input file for inconsistencies... 	...done.

--------------------------------------------------------------
User input:
--------------------------------------------------------------
$molecule
0 1
--
0 1
O     2.682746157     0.252087281     0.000000000
H     3.094283083     1.118876774     0.000000000
H     3.423599950    -0.357576759     0.000000000
--
0 1
Si    -0.620731032    -0.024128783     0.000000000
H    -0.103508531    -0.701873080    -1.208291248
H    -0.103508531    -0.701873080     1.208291248
H    -0.180993198     1.389052634     0.000000000
C    -2.503121248    -0.090374065     0.000000000
H    -2.910489008     0.403623170     0.880759883
H    -2.855844000    -1.120610559     0.000000000
H    -2.910489008     0.403623170    -0.880759883
$end

$rem
BASIS = aug-cc-pVTZ
JOB_TYPE  =  BSSE
METHOD  =  MP2
SCF_CONVERGENCE  =  7
SCF_MAX_CYCLES  =  200
$end

--------------------------------------------------------------
 ----------------------------------------------------------------
             Standard Nuclear Orientation (Angstroms)
    I     Atom           X                Y                Z
 ----------------------------------------------------------------
    1      O       2.8236137287     0.0050006948     0.0000000000
    2      H       3.2965481071     0.8398777758     0.0000000000
    3      H       3.5186040028    -0.6564697150    -0.0000000000
    4      Si     -0.4911798272    -0.0324230172    -0.0000000000
    5      H      -0.0241457355    -0.7456800570    -1.2082912480
    6      H      -0.0241457355    -0.7456800570     1.2082912480
    7      H       0.0492593579     1.3453928512     0.0000000000
    8      C      -2.3734494868     0.0371635549     0.0000000000
    9      H      -2.7441567230     0.5592343405     0.8807598830
   10      H      -2.7995018786    -0.9649741267    -0.0000000000
   11      H      -2.7441567230     0.5592343405    -0.8807598830
 ----------------------------------------------------------------
 Molecular Point Group                 Cs    NOp =  2
 Largest Abelian Subgroup              Cs    NOp =  2
 Nuclear Repulsion Energy =   107.1784213693 hartrees
 There are       18 alpha and       18 beta electrons
 Requested basis set is aug-cc-pVTZ
 There are 116 shells and 326 basis functions

 Total QAlloc Memory Limit   4000 MB
 Mega-Array Size       188 MB
 MEM_STATIC part       192 MB

                       Distance Matrix (Angstroms)
             O (  1)   H (  2)   H (  3)   Si(  4)   H (  5)   H (  6)
   H (  2)  0.959524
   H (  3)  0.959455  1.512734
   Si(  4)  3.315005  3.886874  4.058054
   H (  5)  3.183272  3.873108  3.744196  1.478791
   H (  6)  3.183272  3.873108  3.744196  1.478791  2.416582
   H (  7)  3.081184  3.286401  4.005472  1.480017  2.416183  2.416183
   C (  8)  5.197163  5.726537  5.932741  1.883556  2.755366  2.755366
   H (  9)  5.664184  6.111024  6.440174  2.490322  3.669523  3.034557
   H ( 10)  5.706162  6.357619  6.325633  2.489579  3.034907  3.034907
   H ( 11)  5.664184  6.111024  6.440174  2.490322  3.034557  3.669523
             H (  7)   C (  8)   H (  9)   H ( 10)
   C (  8)  2.753358
   H (  9)  3.032648  1.088908
   H ( 10)  3.667865  1.088945  1.761253
   H ( 11)  3.032648  1.088908  1.761520  1.761253
 
 A cutoff of  1.0D-10 yielded   6143 shell pairs
 There are     47625 function pairs (     60885 Cartesian)
 
 -------------------------------------------------------
 OpenMP Integral Computing Module                       
 Release: version 1.0, May 2013, Q-Chem Inc. Pittsburgh 
 -------------------------------------------------------
 Integral Job Info:
 Integral job number is                      11
 Integral operator is                         1
 short-range coefficients                     0
 long-range coefficients              100000000
 Omega coefficients                           0
 if combine SR and LR in K                    0
 Integral screening is                        0
 Integral computing path is                   2
 max size of driver memory is            800000
 size of driver memory is                776718
 size of scratch memory is             29531563
 max col of scratch BK array              10000
 max len of scratch array in speh3          662
 max len of scratch index in speh4           32
 max int batch size is                      520
 min int batch size is                       52
 fixed nKL is                                31
 max L of basis functions is                  3
 order of int derivative is                   0
 number of shells is                        116
 number of basis is                         369
 number of cartesian basis is               369
 number of contracted shell pairs          6143
 number of primitive shell pairs          16804
 maxK2 (contraction) of shell pair          169
 max number of K2 of shell pair               1
 max number of CS2 of shell pair           1086
 max number of PS2 of shell pair           1222
 mem total for path MDJ                  658028
 -------------------------------------------------------
 Smallest overlap matrix eigenvalue = 1.34E-05

 Scale SEOQF with 1.000000e-01/1.000000e-01/1.000000e-01

 Standard Electronic Orientation quadrupole field applied
 Nucleus-field energy     =     0.0000000052 hartrees
 Guess MOs from converged MOs on fragments

-----------------------------------------------------------------
 SCF on fragment 1 out of 2
/home/qwang/software/qchem5.1.2/exe/qcprog.exe /scratch/xuedong/qchem12039/Frg1.input /scratch/xuedong/qchem12039/Frg1/ > /dev/null 
 SCF on fragment 2 out of 2
/home/qwang/software/qchem5.1.2/exe/qcprog.exe /scratch/xuedong/qchem12039/Frg2.input /scratch/xuedong/qchem12039/Frg2/ > /dev/null 
-----------------------------------------------------------------
 Done with SCF on isolated fragments
-----------------------------------------------------------------

 User-specified occupied guess orbitals will be used
 A restricted Hartree-Fock SCF calculation will be
 performed using Pulay DIIS extrapolation
 SCF converges when DIIS error is below 1.0E-07
 using 6 threads for integral computing
 -------------------------------------------------------
 OpenMP Integral computing Module                
 Release: version 1.0, May 2013, Q-Chem Inc. Pittsburgh 
 -------------------------------------------------------
 ---------------------------------------
  Cycle       Energy         DIIS Error
 ---------------------------------------
    1    -406.3826693106      1.81E-04
    2    -406.3834991532      3.94E-05
    3    -406.3835440426      1.47E-05
    4    -406.3835480347      5.70E-06
    5    -406.3835487051      1.31E-06
    6    -406.3835487553      3.99E-07
    7    -406.3835487599      9.20E-08 Convergence criterion met
 ---------------------------------------
 SCF time:  CPU 215.51 s  wall 35.98 s

-----------------------------------------------------------------
 SCF CP correction for fragment 1 out of 2
/home/qwang/software/qchem5.1.2/exe/qcprog.exe /scratch/xuedong/qchem12039/Frg1.input /scratch/xuedong/qchem12039/Frg1BSSE/ > /dev/null 
 SCF CP correction for fragment 2 out of 2
/home/qwang/software/qchem5.1.2/exe/qcprog.exe /scratch/xuedong/qchem12039/Frg2.input /scratch/xuedong/qchem12039/Frg2BSSE/ > /dev/null 
-----------------------------------------------------------------
 Done with counterpoise correction on fragments
-----------------------------------------------------------------

 SCF   energy in the final basis set = -406.38354876
 Total energy in the final basis set = -406.38354876
 
 Components of the MP2 correlation energy:
        aaaa  correlation energy =        -0.0608648424 au
        abab  correlation energy =        -0.4724096642 au
        bbbb  correlation energy =        -0.0608648424 au
        non-Brillouin singles    =        -0.0000000000 au

 Total  MP2   correlation energy =                    -0.59413935 au
        MP2         total energy =                  -406.97768811 au
 
 --------------------------------------------------------------
             Orbital Energies (a.u.) and Symmetries
 --------------------------------------------------------------
 
 Alpha MOs, Restricted
 -- Occupied --                  
-68.751 -20.570 -11.195  -6.100  -4.206  -4.206  -4.205  -1.356
  1 A'    2 A'    3 A'    4 A'    5 A'    1 A"    6 A'    7 A'                 
 -0.936  -0.719  -0.684  -0.590  -0.552  -0.552  -0.514  -0.455
  8 A'    9 A'   10 A'   11 A'    2 A"   12 A'    3 A"   13 A'                 
 -0.454  -0.437
  4 A"   14 A'                                                                 
 -- Virtual --                   
  0.026   0.036   0.045   0.050   0.055   0.060   0.074   0.076
 15 A'   16 A'   17 A'    5 A"   18 A'   19 A'    6 A"   20 A'                 
  0.084   0.090   0.093   0.130   0.137   0.138   0.142   0.163
  7 A"   21 A'   22 A'   23 A'   24 A'    8 A"   25 A'   26 A'                 
  0.168   0.170   0.181   0.187   0.188   0.210   0.222   0.222
  9 A"   27 A'   28 A'   10 A"   29 A'   30 A'   31 A'   11 A"                 
  0.228   0.231   0.244   0.264   0.267   0.273   0.277   0.301
 12 A"   32 A'   33 A'   34 A'   13 A"   35 A'   14 A"   15 A"                 
  0.310   0.325   0.327   0.336   0.339   0.344   0.347   0.360
 36 A'   37 A'   38 A'   16 A"   39 A'   17 A"   40 A'   41 A'                 
  0.360   0.363   0.377   0.378   0.382   0.389   0.398   0.415
 42 A'   18 A"   43 A'   19 A"   44 A'   20 A"   45 A'   21 A"                 
  0.419   0.423   0.432   0.438   0.453   0.458   0.467   0.469
 46 A'   47 A'   22 A"   48 A'   49 A'   50 A'   23 A"   51 A'                 
  0.481   0.491   0.494   0.502   0.510   0.522   0.548   0.595
 52 A'   53 A'   24 A"   54 A'   25 A"   55 A'   56 A'   57 A'                 
  0.615   0.620   0.631   0.646   0.652   0.657   0.681   0.684
 58 A'   26 A"   59 A'   60 A'   27 A"   28 A"   61 A'   62 A'                 
  0.684   0.690   0.693   0.702   0.706   0.734   0.739   0.744
 29 A"   63 A'   30 A"   64 A'   31 A"   65 A'   32 A"   66 A'                 
  0.756   0.802   0.812   0.829   0.842   0.853   0.873   0.873
 67 A'   33 A"   68 A'   34 A"   69 A'   70 A'   71 A'   35 A"                 
  0.884   0.899   0.913   0.913   0.941   0.956   0.963   0.965
 72 A'   36 A"   37 A"   73 A'   38 A"   74 A'   75 A'   39 A"                 
  0.966   0.970   0.977   0.980   1.007   1.026   1.048   1.050
 76 A'   40 A"   77 A'   41 A"   78 A'   79 A'   42 A"   80 A'                 
  1.055   1.058   1.058   1.083   1.094   1.107   1.120   1.123
 81 A'   82 A'   43 A"   83 A'   84 A'   44 A"   85 A'   45 A"                 
  1.154   1.157   1.158   1.158   1.166   1.184   1.189   1.194
 86 A'   46 A"   47 A"   87 A'   88 A'   89 A'   48 A"   90 A'                 
  1.201   1.217   1.221   1.252   1.258   1.262   1.292   1.294
 49 A"   91 A'   50 A"   92 A'   51 A"   93 A'   52 A"   94 A'                 
  1.305   1.320   1.323   1.354   1.359   1.393   1.398   1.402
 95 A'   53 A"   96 A'   54 A"   97 A'   98 A'   99 A'   55 A"                 
  1.409   1.412   1.429   1.444   1.449   1.452   1.479   1.480
 56 A"  100 A'  101 A'   57 A"   58 A"  102 A'  103 A'   59 A"                 
  1.498   1.532   1.535   1.564   1.586   1.588   1.636   1.641
104 A'  105 A'   60 A"  106 A'   61 A"  107 A'  108 A'   62 A"                 
  1.645   1.656   1.668   1.701   1.712   1.719   1.739   1.786
 63 A"  109 A'  110 A'   64 A"  111 A'   65 A"  112 A'  113 A'                 
  1.843   1.851   1.852   1.863   1.872   1.915   1.917   1.968
114 A'   66 A"  115 A'  116 A'   67 A"   68 A"  117 A'  118 A'                 
  2.001   2.004   2.011   2.051   2.053   2.063   2.106   2.114
119 A'   69 A"  120 A'   70 A"  121 A'  122 A'  123 A'  124 A'                 
  2.142   2.149   2.170   2.172   2.215   2.239   2.290   2.293
 71 A"  125 A'   72 A"  126 A'  127 A'   73 A"   74 A"  128 A'                 
  2.319   2.322   2.345   2.358   2.365   2.454   2.479   2.504
 75 A"   76 A"  129 A'   77 A"  130 A'   78 A"  131 A'  132 A'                 
  2.551   2.724   2.750   2.756   2.761   2.852   2.889   2.921
133 A'  134 A'  135 A'   79 A"  136 A'  137 A'   80 A"  138 A'                 
  3.119   3.121   3.147   3.344   3.424   3.425   3.504   3.573
 81 A"  139 A'  140 A'  141 A'   82 A"  142 A'  143 A'   83 A"                 
  3.573   3.625   3.652   3.672   3.673   3.717   3.736   3.751
144 A'   84 A"  145 A'   85 A"  146 A'  147 A'   86 A"  148 A'                 
  3.832   3.841   3.845   3.953   3.955   4.006   4.027   4.053
149 A'   87 A"  150 A'   88 A"  151 A'   89 A"   90 A"   91 A"                 
  4.058   4.083   4.099   4.108   4.129   4.130   4.131   4.165
152 A'  153 A'   92 A"   93 A"   94 A"  154 A'  155 A'  156 A'                 
  4.165   4.178   4.195   4.219   4.223   4.237   4.253   4.267
 95 A"  157 A'  158 A'   96 A"  159 A'   97 A"  160 A'  161 A'                 
  4.299   4.309   4.356   4.359   4.375   4.406   4.441   4.500
 98 A"  162 A'   99 A"  163 A'  100 A"  164 A'  101 A"  102 A"                 
  4.509   4.513   4.514   4.532   4.552   4.558   4.603   4.619
165 A'  103 A"  166 A'  167 A'  104 A"  168 A'  169 A'  105 A"                 
  4.619   4.765   4.780   4.780   4.823   4.825   4.861   4.875
170 A'  171 A'  106 A"  172 A'  173 A'  107 A"  174 A'  108 A"                 
  4.875   4.906   4.967   5.021   5.029   5.030   5.081   5.152
175 A'  176 A'  177 A'  109 A"  178 A'  110 A"  179 A'  111 A"                 
  5.157   5.173   5.173   5.235   5.259   5.303   5.352   5.371
180 A'  112 A"  181 A'  182 A'  113 A"  183 A'  184 A'  185 A'                 
  5.528   5.569   5.614   5.614   5.630   5.793   5.937   6.117
114 A"  115 A"  116 A"  186 A'  187 A'  188 A'  189 A'  190 A'                 
  6.117   6.262   6.591   6.705   6.708   6.727   6.947   7.151
117 A"  191 A'  192 A'  118 A"  193 A'  119 A"  194 A'  120 A"                 
  7.313   7.316   7.324   7.364   7.473   7.625   7.911   7.934
121 A"  195 A'  122 A"  123 A"  196 A'  197 A'  198 A'  199 A'                 
  8.828   9.142  15.897  17.046
200 A'  201 A'  202 A'  203 A'                                                 
 
 Beta MOs, Restricted
 -- Occupied --                  
-68.751 -20.570 -11.195  -6.100  -4.206  -4.206  -4.205  -1.356
  1 A'    2 A'    3 A'    4 A'    5 A'    1 A"    6 A'    7 A'                 
 -0.936  -0.719  -0.684  -0.590  -0.552  -0.552  -0.514  -0.455
  8 A'    9 A'   10 A'   11 A'    2 A"   12 A'    3 A"   13 A'                 
 -0.454  -0.437
  4 A"   14 A'                                                                 
 -- Virtual --                   
  0.026   0.036   0.045   0.050   0.055   0.060   0.074   0.076
 15 A'   16 A'   17 A'    5 A"   18 A'   19 A'    6 A"   20 A'                 
  0.084   0.090   0.093   0.130   0.137   0.138   0.142   0.163
  7 A"   21 A'   22 A'   23 A'   24 A'    8 A"   25 A'   26 A'                 
  0.168   0.170   0.181   0.187   0.188   0.210   0.222   0.222
  9 A"   27 A'   28 A'   10 A"   29 A'   30 A'   31 A'   11 A"                 
  0.228   0.231   0.244   0.264   0.267   0.273   0.277   0.301
 12 A"   32 A'   33 A'   34 A'   13 A"   35 A'   14 A"   15 A"                 
  0.310   0.325   0.327   0.336   0.339   0.344   0.347   0.360
 36 A'   37 A'   38 A'   16 A"   39 A'   17 A"   40 A'   41 A'                 
  0.360   0.363   0.377   0.378   0.382   0.389   0.398   0.415
 42 A'   18 A"   43 A'   19 A"   44 A'   20 A"   45 A'   21 A"                 
  0.419   0.423   0.432   0.438   0.453   0.458   0.467   0.469
 46 A'   47 A'   22 A"   48 A'   49 A'   50 A'   23 A"   51 A'                 
  0.481   0.491   0.494   0.502   0.510   0.522   0.548   0.595
 52 A'   53 A'   24 A"   54 A'   25 A"   55 A'   56 A'   57 A'                 
  0.615   0.620   0.631   0.646   0.652   0.657   0.681   0.684
 58 A'   26 A"   59 A'   60 A'   27 A"   28 A"   61 A'   62 A'                 
  0.684   0.690   0.693   0.702   0.706   0.734   0.739   0.744
 29 A"   63 A'   30 A"   64 A'   31 A"   65 A'   32 A"   66 A'                 
  0.756   0.802   0.812   0.829   0.842   0.853   0.873   0.873
 67 A'   33 A"   68 A'   34 A"   69 A'   70 A'   71 A'   35 A"                 
  0.884   0.899   0.913   0.913   0.941   0.956   0.963   0.965
 72 A'   36 A"   37 A"   73 A'   38 A"   74 A'   75 A'   39 A"                 
  0.966   0.970   0.977   0.980   1.007   1.026   1.048   1.050
 76 A'   40 A"   77 A'   41 A"   78 A'   79 A'   42 A"   80 A'                 
  1.055   1.058   1.058   1.083   1.094   1.107   1.120   1.123
 81 A'   82 A'   43 A"   83 A'   84 A'   44 A"   85 A'   45 A"                 
  1.154   1.157   1.158   1.158   1.166   1.184   1.189   1.194
 86 A'   46 A"   47 A"   87 A'   88 A'   89 A'   48 A"   90 A'                 
  1.201   1.217   1.221   1.252   1.258   1.262   1.292   1.294
 49 A"   91 A'   50 A"   92 A'   51 A"   93 A'   52 A"   94 A'                 
  1.305   1.320   1.323   1.354   1.359   1.393   1.398   1.402
 95 A'   53 A"   96 A'   54 A"   97 A'   98 A'   99 A'   55 A"                 
  1.409   1.412   1.429   1.444   1.449   1.452   1.479   1.480
 56 A"  100 A'  101 A'   57 A"   58 A"  102 A'  103 A'   59 A"                 
  1.498   1.532   1.535   1.564   1.586   1.588   1.636   1.641
104 A'  105 A'   60 A"  106 A'   61 A"  107 A'  108 A'   62 A"                 
  1.645   1.656   1.668   1.701   1.712   1.719   1.739   1.786
 63 A"  109 A'  110 A'   64 A"  111 A'   65 A"  112 A'  113 A'                 
  1.843   1.851   1.852   1.863   1.872   1.915   1.917   1.968
114 A'   66 A"  115 A'  116 A'   67 A"   68 A"  117 A'  118 A'                 
  2.001   2.004   2.011   2.051   2.053   2.063   2.106   2.114
119 A'   69 A"  120 A'   70 A"  121 A'  122 A'  123 A'  124 A'                 
  2.142   2.149   2.170   2.172   2.215   2.239   2.290   2.293
 71 A"  125 A'   72 A"  126 A'  127 A'   73 A"   74 A"  128 A'                 
  2.319   2.322   2.345   2.358   2.365   2.454   2.479   2.504
 75 A"   76 A"  129 A'   77 A"  130 A'   78 A"  131 A'  132 A'                 
  2.551   2.724   2.750   2.756   2.761   2.852   2.889   2.921
133 A'  134 A'  135 A'   79 A"  136 A'  137 A'   80 A"  138 A'                 
  3.119   3.121   3.147   3.344   3.424   3.425   3.504   3.573
 81 A"  139 A'  140 A'  141 A'   82 A"  142 A'  143 A'   83 A"                 
  3.573   3.625   3.652   3.672   3.673   3.717   3.736   3.751
144 A'   84 A"  145 A'   85 A"  146 A'  147 A'   86 A"  148 A'                 
  3.832   3.841   3.845   3.953   3.955   4.006   4.027   4.053
149 A'   87 A"  150 A'   88 A"  151 A'   89 A"   90 A"   91 A"                 
  4.058   4.083   4.099   4.108   4.129   4.130   4.131   4.165
152 A'  153 A'   92 A"   93 A"   94 A"  154 A'  155 A'  156 A'                 
  4.165   4.178   4.195   4.219   4.223   4.237   4.253   4.267
 95 A"  157 A'  158 A'   96 A"  159 A'   97 A"  160 A'  161 A'                 
  4.299   4.309   4.356   4.359   4.375   4.406   4.441   4.500
 98 A"  162 A'   99 A"  163 A'  100 A"  164 A'  101 A"  102 A"                 
  4.509   4.513   4.514   4.532   4.552   4.558   4.603   4.619
165 A'  103 A"  166 A'  167 A'  104 A"  168 A'  169 A'  105 A"                 
  4.619   4.765   4.780   4.780   4.823   4.825   4.861   4.875
170 A'  171 A'  106 A"  172 A'  173 A'  107 A"  174 A'  108 A"                 
  4.875   4.906   4.967   5.021   5.029   5.030   5.081   5.152
175 A'  176 A'  177 A'  109 A"  178 A'  110 A"  179 A'  111 A"                 
  5.157   5.173   5.173   5.235   5.259   5.303   5.352   5.371
180 A'  112 A"  181 A'  182 A'  113 A"  183 A'  184 A'  185 A'                 
  5.528   5.569   5.614   5.614   5.630   5.793   5.937   6.117
114 A"  115 A"  116 A"  186 A'  187 A'  188 A'  189 A'  190 A'                 
  6.117   6.262   6.591   6.705   6.708   6.727   6.947   7.151
117 A"  191 A'  192 A'  118 A"  193 A'  119 A"  194 A'  120 A"                 
  7.313   7.316   7.324   7.364   7.473   7.625   7.911   7.934
121 A"  195 A'  122 A"  123 A"  196 A'  197 A'  198 A'  199 A'                 
  8.828   9.142  15.897  17.046
200 A'  201 A'  202 A'  203 A'                                                 
 --------------------------------------------------------------
 
          Ground-State Mulliken Net Atomic Charges

     Atom                 Charge (a.u.)
  ----------------------------------------
      1 O                    -0.394055
      2 H                     0.208064
      3 H                     0.186307
      4 Si                    1.323328
      5 H                    -0.333344
      6 H                    -0.333344
      7 H                    -0.348467
      8 C                    -1.133466
      9 H                     0.275407
     10 H                     0.274163
     11 H                     0.275407
  ----------------------------------------
  Sum of atomic charges =     0.000000

 -----------------------------------------------------------------
                    Cartesian Multipole Moments
 -----------------------------------------------------------------
    Charge (ESU x 10^10)
                 0.0000
    Dipole Moment (Debye)
         X       1.8409      Y       0.2709      Z       0.0000
       Tot       1.8607
    Quadrupole Moments (Debye-Ang)
        XX     -17.1809     XY       0.6106     YY     -27.7725
        XZ       0.0000     YZ       0.0000     ZZ     -30.9618
    Octopole Moments (Debye-Ang^2)
       XXX      77.5323    XXY       0.7144    XYY      12.2732
       YYY      -0.8530    XXZ       0.0000    XYZ      -0.0000
       YYZ      -0.0000    XZZ       1.7466    YZZ       2.1343
       ZZZ       0.0000
    Hexadecapole Moments (Debye-Ang^3)
      XXXX    -463.7673   XXXY      -0.0124   XXYY     -93.1218
      XYYY       4.5873   YYYY     -64.3373   XXXZ      -0.0000
      XXYZ       0.0000   XYYZ      -0.0000   YYYZ       0.0000
      XXZZ    -128.4315   XYZZ      -2.2937   YYZZ     -21.8494
      XZZZ      -0.0000   YZZZ       0.0000   ZZZZ     -64.5780
 -----------------------------------------------------------------

 ---------------------------------------------------------------------
 *                     Fragment's binding energy                     *
 ---------------------------------------------------------------------
    Fragment           E(TOTAL)         E(CP-CORR)           DE(BSSE)
 ---------------------------------------------------------------------
           1     -76.3289853399     -76.3292073687       0.0002220288
           2    -330.6465808416    -330.6467833108       0.0002024692
     Complex    -406.9776881090
 ---------------------------------------------------------------------
  DE, kJ/mol      -5.5711866509      -4.4566538890
 ---------------------------------------------------------------------

Archival summary:
1\1\gm4.localdomain\SP\MP2\BasisUnspecified\i1118\xuedong\WedJul1011:41:462019WedJul1011:41:462019\0\\#,MP2,BasisUnspecified,\\0,1\Si\H,1,1.47879\H,1,1.47879,2,109.587\H,1,1.48002,2,109.493,3,-120.111,0\C,1,1.88356,2,109.477,3,120.081,0\H,5,1.08891,1,110.973,2,179.949,0\H,5,1.08891,1,110.973,2,59.9017,0\H,5,1.08894,1,110.915,2,-60.0744,0\O,4,3.08118,1,85.6304,2,60.0845,0\H,9,0.959455,4,162.202,1,0,0\H,9,0.959524,4,93.7434,1,-180,0\\HF=-406.383549\MP2=-406.977688\\@

 Total job time:  371.24s(wall), 703.28s(cpu) 
 Wed Jul 10 11:41:46 2019

        *************************************************************
        *                                                           *
        *  Thank you very much for using Q-Chem.  Have a nice day.  *
        *                                                           *
        *************************************************************


