
Running Job 1 of 1 ../qm_inp/SiH3CH3_SiH3CH3_con1.110.qcinp
qchem ../qm_inp/SiH3CH3_SiH3CH3_con1.110.qcinp_23447.0 /scratch/xuedong/qchem23447/ 1
/home/qwang/software/qchem5.1.2/exe/qcprog.exe_s ../qm_inp/SiH3CH3_SiH3CH3_con1.110.qcinp_23447.0 /scratch/xuedong/qchem23447/
Check license passed

                  Welcome to Q-Chem
     A Quantum Leap Into The Future Of Chemistry


 Q-Chem 5.1, Q-Chem, Inc., Pleasanton, CA (2018)

 Yihan Shao,  Zhengting Gan,  E. Epifanovsky,  A. T. B. Gilbert,  M. Wormit,  
 J. Kussmann,  A. W. Lange,  A. Behn,  Jia Deng,  Xintian Feng,  D. Ghosh,  
 M. Goldey,  P. R. Horn,  L. D. Jacobson,  I. Kaliman,  T. Kus,  A. Landau,  
 Jie Liu,  E. I. Proynov,  R. M. Richard,  R. P. Steele,  E. J. Sundstrom,  
 H. L. Woodcock III,  P. M. Zimmerman,  D. Zuev,  B. Albrecht,  E. Alguire,  
 S. A. Baeppler,  D. Barton,  Z. Benda,  Y. A. Bernard,  E. J. Berquist,  
 K. B. Bravaya,  H. Burton,  D. Casanova,  Chun-Min Chang,  Yunqing Chen,  
 A. Chien,  K. D. Closser,  M. P. Coons,  S. Coriani,  S. Dasgupta,  
 A. L. Dempwolff,  M. Diedenhofen,  Hainam Do,  R. G. Edgar,  Po-Tung Fang,  
 S. Faraji,  S. Fatehi,  Qingguo Feng,  K. D. Fenk,  J. Fosso-Tande,  
 J. Gayvert,  Qinghui Ge,  A. Ghysels,  G. Gidofalvi,  J. Gomes,  
 J. Gonthier,  A. Gunina,  D. Hait,  M. W. D. Hanson-Heine,  
 P. H. P. Harbach,  A. W. Hauser,  J. E. Herr,  E. G. Hohenstein,  
 Z. C. Holden,  Kerwin Hui,  B. C. Huynh,  T.-C. Jagau,  Hyunjun Ji,  
 B. Kaduk,  K. Khistyaev,  Jaehoon Kim,  P. Klunzinger,  K. Koh,  
 D. Kosenkov,  L. Koulias,  T. Kowalczyk,  C. M. Krauter,  A. Kunitsa,  
 Ka Un Lao,  A. Laurent,  K. V. Lawler,  Joonho Lee,  D. Lefrancois,  
 S. Lehtola,  D. S. Levine,  Yi-Pei Li,  You-Sheng Lin,  Fenglai Liu,  
 E. Livshits,  A. Luenser,  P. Manohar,  E. Mansoor,  S. F. Manzer,  
 Shan-Ping Mao,  Yuezhi Mao,  N. Mardirossian,  A. V. Marenich,  
 T. Markovich,  L. A. Martinez-Martinez,  S. A. Maurer,  N. J. Mayhall,  
 S. C. McKenzie,  J.-M. Mewes,  A. F. Morrison,  J. W. Mullinax,  K. Nanda,  
 T. S. Nguyen-Beck,  R. Olivares-Amaya,  J. A. Parkhill,  T. M. Perrine,  
 F. Plasser,  P. Pokhilko,  S. Prager,  A. Prociuk,  E. Ramos,  D. R. Rehn,  
 F. Rob,  M. Schneider,  N. Sergueev,  S. M. Sharada,  S. Sharma,  
 D. W. Small,  T. Stauch,  T. Stein,  Yu-Chuan Su,  A. J. W. Thom,  
 A. Tkatchenko,  T. Tsuchimochi,  N. M. Tubman,  L. Vogt,  M. L. Vidal,  
 O. Vydrov,  M. A. Watson,  J. Wenzel,  M. de Wergifosse,  T. A. Wesolowski,  
 A. White,  J. Witte,  A. Yamada,  Jun Yang,  K. Yao,  S. Yeganeh,  
 S. R. Yost,  Zhi-Qiang You,  A. Zech,  Igor Ying Zhang,  Xing Zhang,  
 Yan Zhao,  Ying Zhu,  B. R. Brooks,  G. K. L. Chan,  C. J. Cramer,  
 M. S. Gordon,  W. J. Hehre,  A. Klamt,  M. W. Schmidt,  C. D. Sherrill,  
 D. G. Truhlar,  A. Aspuru-Guzik,  R. Baer,  A. T. Bell,  N. A. Besley,  
 Jeng-Da Chai,  A. E. DePrince, III,  R. A. DiStasio Jr.,  A. Dreuw,  
 B. D. Dunietz,  T. R. Furlani,  Chao-Ping Hsu,  Yousung Jung,  Jing Kong,  
 D. S. Lambrecht,  WanZhen Liang,  C. Ochsenfeld,  V. A. Rassolov,  
 L. V. Slipchenko,  J. E. Subotnik,  T. Van Voorhis,  J. M. Herbert,  
 A. I. Krylov,  P. M. W. Gill,  M. Head-Gordon

 Contributors to earlier versions of Q-Chem not listed above: 
 R. D. Adamson,  B. Austin,  J. Baker,  G. J. O. Beran,  K. Brandhorst,  
 S. T. Brown,  E. F. C. Byrd,  A. K. Chakraborty,  C.-L. Cheng,  
 Siu Hung Chien,  D. M. Chipman,  D. L. Crittenden,  H. Dachsel,  
 R. J. Doerksen,  A. D. Dutoi,  L. Fusti-Molnar,  W. A. Goddard III,  
 A. Golubeva-Zadorozhnaya,  S. R. Gwaltney,  G. Hawkins,  A. Heyden,  
 S. Hirata,  G. Kedziora,  F. J. Keil,  C. Kelley,  Jihan Kim,  R. A. King,  
 R. Z. Khaliullin,  P. P. Korambath,  W. Kurlancheek,  A. M. Lee,  M. S. Lee,  
 S. V. Levchenko,  Ching Yeh Lin,  D. Liotard,  R. C. Lochan,  I. Lotan,  
 P. E. Maslen,  N. Nair,  D. P. O'Neill,  D. Neuhauser,  E. Neuscamman,  
 C. M. Oana,  R. Olson,  B. Peters,  R. Peverati,  P. A. Pieniazek,  
 Y. M. Rhee,  J. Ritchie,  M. A. Rohrdanz,  E. Rosta,  N. J. Russ,  
 H. F. Schaefer III,  N. E. Schultz,  N. Shenvi,  A. C. Simmonett,  A. Sodt,  
 D. Stuck,  K. S. Thanthiriwatte,  V. Vanovschi,  Tao Wang,  A. Warshel,  
 C. F. Williams,  Q. Wu,  X. Xu,  W. Zhang

 Please cite Q-Chem as follows:
 Y. Shao et al., Mol. Phys. 113, 184-215 (2015)
 DOI: 10.1080/00268976.2014.952696

 Q-Chem 5.1.2 for Intel X86 EM64T Linux

 Parts of Q-Chem use Armadillo 8.300.2 (Tropical Shenanigans).
 http://arma.sourceforge.net/

 Q-Chem begins on Tue Jul  2 12:32:11 2019  

Host: 
0

     Scratch files written to /scratch/xuedong/qchem23447//
 Dec218 |scratch|qcdevops|jenkins|workspace|build_RNUM 6581   
Processing $rem in /home/qwang/software/qchem5.1.2/config/preferences.
 MEM_TOTAL  4000 
Core orbitals will be frozen
Input Ideriv = 1
Curr. Ideriv = -1
Max.  Ideriv = 1

Checking the input file for inconsistencies... 	...done.

--------------------------------------------------------------
User input:
--------------------------------------------------------------
$molecule
0 1
--
0 1
Si     2.206519773     0.028225580     0.000619108
H     1.719687849     0.752119435    -1.196193955
H     1.720552923     0.738931435     1.205678115
H     1.620645936    -1.331752276    -0.006589851
C     4.082202750    -0.060760672    -0.000507565
H     4.444822828    -0.592187257     0.877602138
H     4.444224422    -0.582384122    -0.884721181
H     4.516939396     0.937214734     0.004896367
--
0 1
Si    -3.818392200    -0.011686731     0.002224503
H    -4.356802203     0.670373197    -1.197047940
H    -4.346444963     0.673315065     1.204418389
H    -4.313212965    -1.407566574     0.006059864
C    -1.940678943     0.022827011    -0.005899738
H    -1.541423517    -0.477963486     0.874488394
H    -1.548925315    -0.480332570    -0.888304356
H    -1.573712274     1.047912798    -0.008859978
$end

$rem
BASIS = aug-cc-pVTZ
JOB_TYPE  =  BSSE
METHOD  =  MP2
SCF_MAX_CYCLES  =  200
$end

--------------------------------------------------------------
 ----------------------------------------------------------------
             Standard Nuclear Orientation (Angstroms)
    I     Atom           X                Y                Z
 ----------------------------------------------------------------
    1      Si     -2.3782168705    -0.0327644375     0.0017497170
    2      H      -1.8903955531    -0.7833709424    -1.1780847546
    3      H      -1.8910439111    -0.7146961564     1.2228416220
    4      H      -1.7944260495     1.3275774498    -0.0369558081
    5      C      -4.2540339569     0.0533060018    -0.0011812513
    6      H      -4.6173804135     0.6043234610     0.8644649229
    7      H      -4.6169408244     0.5538080375    -0.8971615809
    8      H      -4.6872420327    -0.9449412586     0.0273360231
    9      Si      3.6466270831     0.0163799524     0.0016254305
   10      H       4.1859621442    -0.6923818529    -1.1816411770
   11      H       4.1758462802    -0.6398564881     1.2192534920
   12      H       4.1393110761     1.4127302408    -0.0268559795
   13      C       1.7689680611    -0.0211812637    -0.0054477062
   14      H       1.3690334166     0.4992049839     0.8631889920
   15      H       1.3763577122     0.4608582186    -0.8991889610
   16      H       1.4035705535    -1.0466213304     0.0153248895
 ----------------------------------------------------------------
 Molecular Point Group                 C1    NOp =  1
 Largest Abelian Subgroup              C1    NOp =  1
 Nuclear Repulsion Energy =   188.0899595049 hartrees
 There are       26 alpha and       26 beta electrons
 Requested basis set is aug-cc-pVTZ
 There are 168 shells and 468 basis functions

 Total QAlloc Memory Limit   4000 MB
 Mega-Array Size       188 MB
 MEM_STATIC part       192 MB
 A cutoff of  1.0D-08 yielded  11075 shell pairs
 There are     81705 function pairs (    103321 Cartesian)
 
 -------------------------------------------------------
 OpenMP Integral Computing Module                       
 Release: version 1.0, May 2013, Q-Chem Inc. Pittsburgh 
 -------------------------------------------------------
 Integral Job Info:
 Integral job number is                      11
 Integral operator is                         1
 short-range coefficients                     0
 long-range coefficients              100000000
 Omega coefficients                           0
 if combine SR and LR in K                    0
 Integral screening is                        0
 Integral computing path is                   2
 max size of driver memory is            800000
 size of driver memory is                776718
 size of scratch memory is             29531563
 max col of scratch BK array              10000
 max len of scratch array in speh3          662
 max len of scratch index in speh4           32
 max int batch size is                      520
 min int batch size is                       52
 fixed nKL is                                31
 max L of basis functions is                  3
 order of int derivative is                   0
 number of shells is                        168
 number of basis is                         528
 number of cartesian basis is               528
 number of contracted shell pairs         11075
 number of primitive shell pairs          29766
 maxK2 (contraction) of shell pair          169
 max number of K2 of shell pair               1
 max number of CS2 of shell pair           2118
 max number of PS2 of shell pair           2847
 mem total for path MDJ                  770556
 -------------------------------------------------------
 Smallest overlap matrix eigenvalue = 1.16E-05

 Q-Chem warning in module stvman/mkSTV.C, line 306:

 Overlap eigenvalue is smaller than square root of threshold
 Use THRESH >= 12 to get rid of this warning


 Scale SEOQF with 1.000000e-01/1.000000e-01/1.000000e-01

 Standard Electronic Orientation quadrupole field applied
 Nucleus-field energy     =     0.0000000185 hartrees
 Guess MOs from converged MOs on fragments

-----------------------------------------------------------------
 SCF on fragment 1 out of 2
/home/qwang/software/qchem5.1.2/exe/qcprog.exe /scratch/xuedong/qchem23447/Frg1.input /scratch/xuedong/qchem23447/Frg1/ > /dev/null 
 SCF on fragment 2 out of 2
/home/qwang/software/qchem5.1.2/exe/qcprog.exe /scratch/xuedong/qchem23447/Frg2.input /scratch/xuedong/qchem23447/Frg2/ > /dev/null 
-----------------------------------------------------------------
 Done with SCF on isolated fragments
-----------------------------------------------------------------

 User-specified occupied guess orbitals will be used
 A restricted Hartree-Fock SCF calculation will be
 performed using Pulay DIIS extrapolation
 SCF converges when DIIS error is below 1.0E-05
 using 6 threads for integral computing
 -------------------------------------------------------
 OpenMP Integral computing Module                
 Release: version 1.0, May 2013, Q-Chem Inc. Pittsburgh 
 -------------------------------------------------------
 ---------------------------------------
  Cycle       Energy         DIIS Error
 ---------------------------------------
    1    -660.6460250413      5.98E-05
    2    -660.6461450820      1.07E-05
    3    -660.6461471261      9.22E-06 Convergence criterion met
 ---------------------------------------
 SCF time:  CPU 277.25 s  wall 46.23 s

-----------------------------------------------------------------
 SCF CP correction for fragment 1 out of 2
/home/qwang/software/qchem5.1.2/exe/qcprog.exe /scratch/xuedong/qchem23447/Frg1.input /scratch/xuedong/qchem23447/Frg1BSSE/ > /dev/null 
 SCF CP correction for fragment 2 out of 2
/home/qwang/software/qchem5.1.2/exe/qcprog.exe /scratch/xuedong/qchem23447/Frg2.input /scratch/xuedong/qchem23447/Frg2BSSE/ > /dev/null 
-----------------------------------------------------------------
 Done with counterpoise correction on fragments
-----------------------------------------------------------------

 SCF   energy in the final basis set = -660.64614713
 Total energy in the final basis set = -660.64614713
 
 Components of the MP2 correlation energy:
        aaaa  correlation energy =        -0.0560567333 au
        abab  correlation energy =        -0.5368043954 au
        bbbb  correlation energy =        -0.0560567333 au
        non-Brillouin singles    =        -0.0000000000 au

 Total  MP2   correlation energy =                    -0.64891786 au
        MP2         total energy =                  -661.29506499 au
 
 --------------------------------------------------------------
 
                    Orbital Energies (a.u.)
 --------------------------------------------------------------
 
 Alpha MOs
 -- Occupied --
-68.767 -68.764 -11.209 -11.207  -6.116  -6.113  -4.222  -4.222
 -4.222  -4.219  -4.219  -4.219  -0.951  -0.948  -0.701  -0.697
 -0.566  -0.566  -0.564  -0.563  -0.470  -0.470  -0.467  -0.467
 -0.459  -0.450
 -- Virtual --
  0.027   0.035   0.041   0.041   0.045   0.053   0.053   0.064
  0.066   0.066   0.076   0.077   0.084   0.085   0.090   0.108
  0.108   0.114   0.129   0.137   0.137   0.141   0.147   0.147
  0.148   0.155   0.165   0.165   0.167   0.168   0.171   0.183
  0.183   0.213   0.213   0.215   0.221   0.229   0.230   0.243
  0.244   0.245   0.257   0.263   0.263   0.270   0.285   0.288
  0.290   0.301   0.302   0.321   0.321   0.323   0.324   0.337
  0.338   0.339   0.344   0.345   0.346   0.357   0.361   0.361
  0.367   0.374   0.376   0.377   0.383   0.383   0.399   0.407
  0.410   0.412   0.420   0.422   0.432   0.434   0.441   0.457
  0.458   0.470   0.475   0.475   0.477   0.479   0.490   0.495
  0.496   0.504   0.513   0.514   0.517   0.531   0.537   0.544
  0.548   0.556   0.579   0.591   0.603   0.609   0.609   0.628
  0.629   0.639   0.660   0.661   0.662   0.670   0.671   0.675
  0.682   0.682   0.688   0.692   0.698   0.699   0.711   0.712
  0.718   0.745   0.747   0.752   0.757   0.765   0.766   0.822
  0.831   0.831   0.841   0.848   0.848   0.861   0.886   0.887
  0.894   0.901   0.909   0.911   0.912   0.932   0.940   0.949
  0.951   0.953   0.964   0.966   0.970   0.972   0.998   0.999
  1.013   1.014   1.026   1.037   1.045   1.047   1.055   1.057
  1.070   1.077   1.079   1.088   1.089   1.091   1.123   1.125
  1.127   1.133   1.134   1.145   1.149   1.150   1.156   1.157
  1.175   1.188   1.191   1.203   1.207   1.209   1.210   1.228
  1.229   1.245   1.248   1.266   1.268   1.277   1.278   1.285
  1.286   1.296   1.301   1.325   1.325   1.327   1.343   1.351
  1.353   1.359   1.359   1.391   1.392   1.398   1.402   1.404
  1.409   1.422   1.424   1.441   1.443   1.444   1.448   1.452
  1.458   1.464   1.472   1.496   1.502   1.506   1.509   1.510
  1.547   1.550   1.550   1.560   1.564   1.602   1.618   1.626
  1.644   1.653   1.659   1.661   1.669   1.675   1.675   1.687
  1.688   1.727   1.728   1.749   1.773   1.817   1.828   1.829
  1.837   1.845   1.864   1.866   1.867   1.907   1.907   1.938
  1.940   1.968   2.010   2.011   2.012   2.022   2.022   2.037
  2.040   2.048   2.061   2.062   2.072   2.100   2.127   2.128
  2.136   2.147   2.148   2.167   2.169   2.182   2.183   2.207
  2.237   2.252   2.283   2.283   2.285   2.286   2.334   2.359
  2.369   2.370   2.390   2.392   2.751   2.780   3.088   3.092
  3.117   3.121   3.123   3.191   3.322   3.349   3.412   3.412
  3.425   3.425   3.462   3.511   3.563   3.563   3.571   3.573
  3.612   3.615   3.644   3.659   3.659   3.682   3.682   3.710
  3.718   3.718   3.750   3.752   3.827   3.829   3.859   3.865
  3.943   3.943   3.956   3.957   3.993   4.002   4.019   4.043
  4.046   4.047   4.053   4.056   4.085   4.109   4.110   4.114
  4.114   4.130   4.134   4.135   4.139   4.142   4.159   4.161
  4.187   4.195   4.208   4.208   4.216   4.217   4.222   4.223
  4.225   4.253   4.255   4.270   4.334   4.336   4.336   4.337
  4.349   4.352   4.362   4.387   4.503   4.503   4.513   4.520
  4.521   4.526   4.538   4.568   4.586   4.602   4.603   4.606
  4.607   4.608   4.766   4.767   4.777   4.778   4.797   4.808
  4.808   4.809   4.809   4.812   4.845   4.845   4.880   4.882
  4.961   4.993   5.003   5.006   5.017   5.018   5.039   5.039
  5.075   5.090   5.161   5.161   5.172   5.173   5.241   5.242
  5.250   5.250   5.343   5.389   5.562   5.571   5.601   5.601
  5.610   5.610   5.623   5.653   5.944   5.960   6.105   6.105
  6.124   6.127   6.692   6.693   6.713   6.713   9.142   9.210
 17.069  17.527
 --------------------------------------------------------------
 
          Ground-State Mulliken Net Atomic Charges

     Atom                 Charge (a.u.)
  ----------------------------------------
      1 Si                    1.254700
      2 H                    -0.334427
      3 H                    -0.334138
      4 H                    -0.334831
      5 C                    -1.110935
      6 H                     0.280729
      7 H                     0.280600
      8 H                     0.277945
      9 Si                    1.315923
     10 H                    -0.399497
     11 H                    -0.399422
     12 H                    -0.397316
     13 C                    -1.127513
     14 H                     0.341611
     15 H                     0.340796
     16 H                     0.345771
  ----------------------------------------
  Sum of atomic charges =    -0.000004

 -----------------------------------------------------------------
                    Cartesian Multipole Moments
 -----------------------------------------------------------------
    Charge (ESU x 10^10)
                -0.0000
    Dipole Moment (Debye)
         X      -1.4265      Y       0.0207      Z      -0.0042
       Tot       1.4266
    Quadrupole Moments (Debye-Ang)
        XX     -47.4993     XY      -0.1299     YY     -46.5568
        XZ      -0.0063     YZ      -0.0001     ZZ     -46.5582
    Octopole Moments (Debye-Ang^2)
       XXX     -43.1001    XXY      -0.1559    XYY      -6.5882
       YYY      -3.6190    XXZ      -0.0081    XYZ      -0.0053
       YYZ       0.2765    XZZ      -6.5110    YZZ       3.9693
       ZZZ      -0.3485
    Hexadecapole Moments (Debye-Ang^3)
      XXXX   -2933.8091   XXXY       1.7270   XXYY    -500.0439
      XYYY      -1.6532   YYYY    -114.4985   XXXZ       0.0076
      XXYZ      -0.0802   XYYZ      -0.1644   YYYZ       0.0020
      XXZZ    -501.4640   XYZZ      -0.9823   YYZZ     -38.1023
      XZZZ       0.0803   YZZZ      -0.0029   ZZZZ    -114.1820
 -----------------------------------------------------------------

 ---------------------------------------------------------------------
 *                     Fragment's binding energy                     *
 ---------------------------------------------------------------------
    Fragment           E(TOTAL)         E(CP-CORR)           DE(BSSE)
 ---------------------------------------------------------------------
           1    -330.6467438871    -330.6469695113       0.0002256242
           2    -330.6467450887    -330.6469082808       0.0001631920
     Complex    -661.2950649882
 ---------------------------------------------------------------------
  DE, kJ/mol      -4.1378695281      -3.1170203547
 ---------------------------------------------------------------------

Archival summary:
1\1\mm2.localdomain\SP\MP2\BasisUnspecified\i2212\xuedong\TueJul212:54:222019TueJul212:54:222019\0\\#,MP2,BasisUnspecified,\\0,1\Si\H,1,1.48082\H,1,1.48101,2,108.355\H,1,1.48102,2,108.352,3,117.378,0\C,1,1.87779,2,110.59,3,-121.313,0\H,5,1.08857,1,110.822,2,-179.993,0\H,5,1.08857,1,110.817,2,-59.9922,0\H,5,1.08857,1,110.817,2,60.0054,0\H,2,3.39175,1,97.8397,3,-73.7869,0\C,9,1.08871,2,104.337,1,71.3333,0\H,10,1.0887,9,108.112,2,36.5944,0\H,10,1.08879,9,108.16,2,-80.3007,0\Si,10,1.87805,9,110.776,2,158.15,0\H,13,1.48099,10,110.579,9,60.0049,0\H,13,1.48099,10,110.572,9,-59.9939,0\H,13,1.48099,10,110.58,9,-179.993,0\\HF=-660.646147\MP2=-661.295065\\@

 Total job time:  1331.28s(wall), 2715.42s(cpu) 
 Tue Jul  2 12:54:22 2019

        *************************************************************
        *                                                           *
        *  Thank you very much for using Q-Chem.  Have a nice day.  *
        *                                                           *
        *************************************************************


