
Running Job 1 of 1 ../qm_inp/SiH4_SiH4_con2.095.qcinp
qchem ../qm_inp/SiH4_SiH4_con2.095.qcinp_788.0 /scratch/xuedong/qchem788/ 1
/home/qwang/software/qchem5.1.2/exe/qcprog.exe_s ../qm_inp/SiH4_SiH4_con2.095.qcinp_788.0 /scratch/xuedong/qchem788/
Check license passed

                  Welcome to Q-Chem
     A Quantum Leap Into The Future Of Chemistry


 Q-Chem 5.1, Q-Chem, Inc., Pleasanton, CA (2018)

 Yihan Shao,  Zhengting Gan,  E. Epifanovsky,  A. T. B. Gilbert,  M. Wormit,  
 J. Kussmann,  A. W. Lange,  A. Behn,  Jia Deng,  Xintian Feng,  D. Ghosh,  
 M. Goldey,  P. R. Horn,  L. D. Jacobson,  I. Kaliman,  T. Kus,  A. Landau,  
 Jie Liu,  E. I. Proynov,  R. M. Richard,  R. P. Steele,  E. J. Sundstrom,  
 H. L. Woodcock III,  P. M. Zimmerman,  D. Zuev,  B. Albrecht,  E. Alguire,  
 S. A. Baeppler,  D. Barton,  Z. Benda,  Y. A. Bernard,  E. J. Berquist,  
 K. B. Bravaya,  H. Burton,  D. Casanova,  Chun-Min Chang,  Yunqing Chen,  
 A. Chien,  K. D. Closser,  M. P. Coons,  S. Coriani,  S. Dasgupta,  
 A. L. Dempwolff,  M. Diedenhofen,  Hainam Do,  R. G. Edgar,  Po-Tung Fang,  
 S. Faraji,  S. Fatehi,  Qingguo Feng,  K. D. Fenk,  J. Fosso-Tande,  
 J. Gayvert,  Qinghui Ge,  A. Ghysels,  G. Gidofalvi,  J. Gomes,  
 J. Gonthier,  A. Gunina,  D. Hait,  M. W. D. Hanson-Heine,  
 P. H. P. Harbach,  A. W. Hauser,  J. E. Herr,  E. G. Hohenstein,  
 Z. C. Holden,  Kerwin Hui,  B. C. Huynh,  T.-C. Jagau,  Hyunjun Ji,  
 B. Kaduk,  K. Khistyaev,  Jaehoon Kim,  P. Klunzinger,  K. Koh,  
 D. Kosenkov,  L. Koulias,  T. Kowalczyk,  C. M. Krauter,  A. Kunitsa,  
 Ka Un Lao,  A. Laurent,  K. V. Lawler,  Joonho Lee,  D. Lefrancois,  
 S. Lehtola,  D. S. Levine,  Yi-Pei Li,  You-Sheng Lin,  Fenglai Liu,  
 E. Livshits,  A. Luenser,  P. Manohar,  E. Mansoor,  S. F. Manzer,  
 Shan-Ping Mao,  Yuezhi Mao,  N. Mardirossian,  A. V. Marenich,  
 T. Markovich,  L. A. Martinez-Martinez,  S. A. Maurer,  N. J. Mayhall,  
 S. C. McKenzie,  J.-M. Mewes,  A. F. Morrison,  J. W. Mullinax,  K. Nanda,  
 T. S. Nguyen-Beck,  R. Olivares-Amaya,  J. A. Parkhill,  T. M. Perrine,  
 F. Plasser,  P. Pokhilko,  S. Prager,  A. Prociuk,  E. Ramos,  D. R. Rehn,  
 F. Rob,  M. Schneider,  N. Sergueev,  S. M. Sharada,  S. Sharma,  
 D. W. Small,  T. Stauch,  T. Stein,  Yu-Chuan Su,  A. J. W. Thom,  
 A. Tkatchenko,  T. Tsuchimochi,  N. M. Tubman,  L. Vogt,  M. L. Vidal,  
 O. Vydrov,  M. A. Watson,  J. Wenzel,  M. de Wergifosse,  T. A. Wesolowski,  
 A. White,  J. Witte,  A. Yamada,  Jun Yang,  K. Yao,  S. Yeganeh,  
 S. R. Yost,  Zhi-Qiang You,  A. Zech,  Igor Ying Zhang,  Xing Zhang,  
 Yan Zhao,  Ying Zhu,  B. R. Brooks,  G. K. L. Chan,  C. J. Cramer,  
 M. S. Gordon,  W. J. Hehre,  A. Klamt,  M. W. Schmidt,  C. D. Sherrill,  
 D. G. Truhlar,  A. Aspuru-Guzik,  R. Baer,  A. T. Bell,  N. A. Besley,  
 Jeng-Da Chai,  A. E. DePrince, III,  R. A. DiStasio Jr.,  A. Dreuw,  
 B. D. Dunietz,  T. R. Furlani,  Chao-Ping Hsu,  Yousung Jung,  Jing Kong,  
 D. S. Lambrecht,  WanZhen Liang,  C. Ochsenfeld,  V. A. Rassolov,  
 L. V. Slipchenko,  J. E. Subotnik,  T. Van Voorhis,  J. M. Herbert,  
 A. I. Krylov,  P. M. W. Gill,  M. Head-Gordon

 Contributors to earlier versions of Q-Chem not listed above: 
 R. D. Adamson,  B. Austin,  J. Baker,  G. J. O. Beran,  K. Brandhorst,  
 S. T. Brown,  E. F. C. Byrd,  A. K. Chakraborty,  C.-L. Cheng,  
 Siu Hung Chien,  D. M. Chipman,  D. L. Crittenden,  H. Dachsel,  
 R. J. Doerksen,  A. D. Dutoi,  L. Fusti-Molnar,  W. A. Goddard III,  
 A. Golubeva-Zadorozhnaya,  S. R. Gwaltney,  G. Hawkins,  A. Heyden,  
 S. Hirata,  G. Kedziora,  F. J. Keil,  C. Kelley,  Jihan Kim,  R. A. King,  
 R. Z. Khaliullin,  P. P. Korambath,  W. Kurlancheek,  A. M. Lee,  M. S. Lee,  
 S. V. Levchenko,  Ching Yeh Lin,  D. Liotard,  R. C. Lochan,  I. Lotan,  
 P. E. Maslen,  N. Nair,  D. P. O'Neill,  D. Neuhauser,  E. Neuscamman,  
 C. M. Oana,  R. Olson,  B. Peters,  R. Peverati,  P. A. Pieniazek,  
 Y. M. Rhee,  J. Ritchie,  M. A. Rohrdanz,  E. Rosta,  N. J. Russ,  
 H. F. Schaefer III,  N. E. Schultz,  N. Shenvi,  A. C. Simmonett,  A. Sodt,  
 D. Stuck,  K. S. Thanthiriwatte,  V. Vanovschi,  Tao Wang,  A. Warshel,  
 C. F. Williams,  Q. Wu,  X. Xu,  W. Zhang

 Please cite Q-Chem as follows:
 Y. Shao et al., Mol. Phys. 113, 184-215 (2015)
 DOI: 10.1080/00268976.2014.952696

 Q-Chem 5.1.2 for Intel X86 EM64T Linux

 Parts of Q-Chem use Armadillo 8.300.2 (Tropical Shenanigans).
 http://arma.sourceforge.net/

 Q-Chem begins on Wed Jun 12 18:12:40 2019  

Host: 
0

     Scratch files written to /scratch/xuedong/qchem788//
 Dec218 |scratch|qcdevops|jenkins|workspace|build_RNUM 6581   
Processing $rem in /home/qwang/software/qchem5.1.2/config/preferences.
 MEM_TOTAL  4000 
Core orbitals will be frozen
Input Ideriv = 1
Curr. Ideriv = -1
Max.  Ideriv = 1

Checking the input file for inconsistencies... 	...done.

--------------------------------------------------------------
User input:
--------------------------------------------------------------
$molecule
0 1
--
0 1
Si     2.173201226     0.002277085    -0.000827763
H     2.463893195     1.428917805     0.248702748
H     1.532427706    -0.146056866    -1.323881333
H     1.257386864    -0.502442133     1.043232525
H     3.430773868    -0.772002931     0.029153171
--
0 1
Si    -1.997869447    -0.002248886     0.000749268
H    -1.475102628     0.363541257    -1.331894472
H    -1.671352693    -1.414279913     0.286937830
H    -3.463603652     0.181189576     0.022485366
H    -1.376787301     0.863251381     1.024696293
$end

$rem
BASIS = aug-cc-pVTZ
JOB_TYPE  =  BSSE
METHOD  =  MP2
SCF_CONVERGENCE  =  8
SCF_MAX_CYCLES  =  200
$end

--------------------------------------------------------------
 ----------------------------------------------------------------
             Standard Nuclear Orientation (Angstroms)
    I     Atom           X                Y                Z
 ----------------------------------------------------------------
    1      Si      2.0856391973     0.0000722929    -0.0000696900
    2      H       2.3777028521     1.4390615539     0.1614226296
    3      H       1.4451689259    -0.2286593863    -1.3117648010
    4      H       1.1689511092    -0.4386073643     1.0726662641
    5      H       3.3424097504    -0.7721566276     0.0779535152
    6      Si     -2.0854342185    -0.0001828301     0.0000906991
    7      H      -1.5618362663     0.2824859393    -1.3523036460
    8      H      -1.7604585842    -1.3922797732     0.3726569928
    9      H      -3.5509876236     0.1857084125     0.0099166708
   10      H      -1.4638198670     0.9259947663     0.9691582469
 ----------------------------------------------------------------
 Molecular Point Group                 C1    NOp =  1
 Largest Abelian Subgroup              C1    NOp =  1
 Nuclear Repulsion Energy =    83.5996248854 hartrees
 There are       18 alpha and       18 beta electrons
 Requested basis set is aug-cc-pVTZ
 There are 104 shells and 284 basis functions

 Total QAlloc Memory Limit   4000 MB
 Mega-Array Size       188 MB
 MEM_STATIC part       192 MB

                       Distance Matrix (Angstroms)
             Si(  1)   H (  2)   H (  3)   H (  4)   H (  5)   Si(  6)
   H (  2)  1.477183
   H (  3)  1.477520  2.412715
   H (  4)  1.477674  2.411864  2.409541
   H (  5)  1.477125  2.413941  2.413758  2.413427
   Si(  6)  4.171073  4.692232  3.773371  3.454513  5.483019
   H (  7)  3.900304  4.375957  3.050409  3.722587  5.216276  1.477507
   H (  8)  4.107315  5.018515  3.803595  3.159263  5.148851  1.477277
   H (  9)  5.639692  6.061619  5.184604  4.878220  6.959961  1.477328
   H ( 10)  3.794126  3.958910  3.872732  2.967210  5.174728  1.477600
             H (  7)   H (  8)   H (  9)
   H (  8)  2.412422
   H (  9)  2.412827  2.414047
   H ( 10)  2.410995  2.412096  2.413387
 
 A cutoff of  1.0D-11 yielded   5189 shell pairs
 There are     38585 function pairs (     48548 Cartesian)
 
 -------------------------------------------------------
 OpenMP Integral Computing Module                       
 Release: version 1.0, May 2013, Q-Chem Inc. Pittsburgh 
 -------------------------------------------------------
 Integral Job Info:
 Integral job number is                      11
 Integral operator is                         1
 short-range coefficients                     0
 long-range coefficients              100000000
 Omega coefficients                           0
 if combine SR and LR in K                    0
 Integral screening is                        0
 Integral computing path is                   2
 max size of driver memory is            800000
 size of driver memory is                776718
 size of scratch memory is             29531563
 max col of scratch BK array              10000
 max len of scratch array in speh3          662
 max len of scratch index in speh4           32
 max int batch size is                      520
 min int batch size is                       52
 fixed nKL is                                31
 max L of basis functions is                  3
 order of int derivative is                   0
 number of shells is                        104
 number of basis is                         318
 number of cartesian basis is               318
 number of contracted shell pairs          5189
 number of primitive shell pairs          17742
 maxK2 (contraction) of shell pair          169
 max number of K2 of shell pair               1
 max number of CS2 of shell pair            934
 max number of PS2 of shell pair           2145
 mem total for path MDJ                  634732
 -------------------------------------------------------
 Smallest overlap matrix eigenvalue = 1.35E-05

 Scale SEOQF with 1.000000e-01/1.000000e-01/1.000000e-01

 Standard Electronic Orientation quadrupole field applied
 Nucleus-field energy     =     0.0000000056 hartrees
 Guess MOs from converged MOs on fragments

-----------------------------------------------------------------
 SCF on fragment 1 out of 2
/home/qwang/software/qchem5.1.2/exe/qcprog.exe /scratch/xuedong/qchem788/Frg1.input /scratch/xuedong/qchem788/Frg1/ > /dev/null 
 SCF on fragment 2 out of 2
/home/qwang/software/qchem5.1.2/exe/qcprog.exe /scratch/xuedong/qchem788/Frg2.input /scratch/xuedong/qchem788/Frg2/ > /dev/null 
-----------------------------------------------------------------
 Done with SCF on isolated fragments
-----------------------------------------------------------------

 User-specified occupied guess orbitals will be used
 A restricted Hartree-Fock SCF calculation will be
 performed using Pulay DIIS extrapolation
 SCF converges when DIIS error is below 1.0E-08
 using 6 threads for integral computing
 -------------------------------------------------------
 OpenMP Integral computing Module                
 Release: version 1.0, May 2013, Q-Chem Inc. Pittsburgh 
 -------------------------------------------------------
 ---------------------------------------
  Cycle       Energy         DIIS Error
 ---------------------------------------
    1    -582.5202088877      1.48E-04
    2    -582.5205444971      1.93E-05
    3    -582.5205542198      2.90E-06
    4    -582.5205544957      5.41E-07
    5    -582.5205545064      1.20E-07
    6    -582.5205545070      2.27E-08
    7    -582.5205545070      3.92E-09 Convergence criterion met
 ---------------------------------------
 SCF time:  CPU 196.13 s  wall 32.71 s

-----------------------------------------------------------------
 SCF CP correction for fragment 1 out of 2
/home/qwang/software/qchem5.1.2/exe/qcprog.exe /scratch/xuedong/qchem788/Frg1.input /scratch/xuedong/qchem788/Frg1BSSE/ > /dev/null 
 SCF CP correction for fragment 2 out of 2
/home/qwang/software/qchem5.1.2/exe/qcprog.exe /scratch/xuedong/qchem788/Frg2.input /scratch/xuedong/qchem788/Frg2BSSE/ > /dev/null 
-----------------------------------------------------------------
 Done with counterpoise correction on fragments
-----------------------------------------------------------------

 SCF   energy in the final basis set = -582.52055451
 Total energy in the final basis set = -582.52055451
 
 Components of the MP2 correlation energy:
        aaaa  correlation energy =        -0.0152782661 au
        abab  correlation energy =        -0.2635484580 au
        bbbb  correlation energy =        -0.0152782661 au
        non-Brillouin singles    =        -0.0000000000 au

 Total  MP2   correlation energy =                    -0.29410499 au
        MP2         total energy =                  -582.81465950 au
 
 --------------------------------------------------------------
 
                    Orbital Energies (a.u.)
 --------------------------------------------------------------
 
 Alpha MOs
 -- Occupied --
-68.775 -68.774  -6.124  -6.124  -4.230  -4.230  -4.230  -4.229
 -4.229  -4.229  -0.737  -0.727  -0.496  -0.494  -0.489  -0.485
 -0.480  -0.478
 -- Virtual --
  0.030   0.040   0.053   0.053   0.060   0.061   0.063   0.069
  0.074   0.079   0.083   0.088   0.097   0.118   0.144   0.146
  0.147   0.151   0.157   0.158   0.159   0.164   0.173   0.185
  0.190   0.209   0.233   0.237   0.243   0.245   0.248   0.265
  0.265   0.275   0.278   0.286   0.293   0.305   0.306   0.310
  0.319   0.331   0.337   0.343   0.348   0.357   0.368   0.388
  0.398   0.411   0.426   0.429   0.432   0.439   0.446   0.460
  0.475   0.480   0.493   0.514   0.518   0.526   0.538   0.563
  0.578   0.582   0.592   0.598   0.605   0.610   0.610   0.621
  0.622   0.631   0.639   0.639   0.655   0.659   0.662   0.665
  0.671   0.686   0.694   0.696   0.701   0.713   0.727   0.804
  0.820   0.870   0.898   0.919   0.935   0.945   0.957   0.968
  0.974   0.978   0.988   0.992   1.001   1.018   1.022   1.038
  1.040   1.046   1.069   1.080   1.092   1.104   1.110   1.113
  1.126   1.139   1.164   1.176   1.195   1.198   1.202   1.206
  1.209   1.217   1.226   1.231   1.248   1.264   1.267   1.274
  1.276   1.293   1.307   1.309   1.325   1.336   1.342   1.351
  1.356   1.364   1.368   1.373   1.377   1.387   1.391   1.397
  1.410   1.419   1.431   1.435   1.448   1.453   1.477   1.493
  1.507   1.510   1.538   1.558   1.569   1.580   1.600   1.658
  1.731   1.857   1.895   1.911   1.924   1.935   1.958   1.978
  1.993   1.995   2.001   2.008   2.013   2.018   2.023   2.037
  2.053   2.062   2.085   2.124   2.233   2.236   2.240   2.247
  2.259   2.262   3.061   3.072   3.079   3.088   3.146   3.206
  3.342   3.367   3.549   3.579   3.613   3.626   3.646   3.698
  3.942   3.953   3.962   3.972   3.977   4.002   4.011   4.025
  4.045   4.062   4.066   4.074   4.081   4.082   4.108   4.152
  4.156   4.159   4.171   4.187   4.210   4.217   4.259   4.268
  4.270   4.272   4.275   4.280   4.285   4.292   4.305   4.326
  4.334   4.348   4.427   4.432   4.456   4.477   4.484   4.501
  4.562   4.571   4.575   4.578   4.586   4.594   4.752   4.761
  4.772   4.800   4.839   4.846   4.852   4.863   4.867   4.882
  4.977   4.995   5.101   5.106   5.111   5.119   5.141   5.176
  8.788   8.927
 --------------------------------------------------------------
 
          Ground-State Mulliken Net Atomic Charges

     Atom                 Charge (a.u.)
  ----------------------------------------
      1 Si                    1.535396
      2 H                    -0.390339
      3 H                    -0.365456
      4 H                    -0.346337
      5 H                    -0.425195
      6 Si                    1.492571
      7 H                    -0.337166
      8 H                    -0.351259
      9 H                    -0.484602
     10 H                    -0.327613
  ----------------------------------------
  Sum of atomic charges =     0.000000

 -----------------------------------------------------------------
                    Cartesian Multipole Moments
 -----------------------------------------------------------------
    Charge (ESU x 10^10)
                -0.0000
    Dipole Moment (Debye)
         X       0.0350      Y      -0.0132      Z       0.0060
       Tot       0.0379
    Quadrupole Moments (Debye-Ang)
        XX     -33.4838     XY       0.0506     YY     -33.5089
        XZ      -0.0103     YZ      -0.0021     ZZ     -33.4349
    Octopole Moments (Debye-Ang^2)
       XXX       1.5221    XXY       0.4804    XYY      -1.2620
       YYY      -0.3528    XXZ      -0.3142    XYZ      -0.2421
       YYZ      -1.1142    XZZ       0.3530    YZZ      -0.2009
       ZZZ       1.4491
    Hexadecapole Moments (Debye-Ang^3)
      XXXX    -977.8709   XXXY       8.2558   XXYY    -174.1856
      XYYY      -5.0682   YYYY     -85.3142   XXXZ      -1.6813
      XXYZ      -0.1128   XYYZ       1.1822   YYYZ      -0.0042
      XXZZ    -165.0782   XYZZ       2.6249   YYZZ     -28.5405
      XZZZ      -0.6364   YZZZ       0.0021   ZZZZ     -84.9432
 -----------------------------------------------------------------

 ---------------------------------------------------------------------
 *                     Fragment's binding energy                     *
 ---------------------------------------------------------------------
    Fragment           E(TOTAL)         E(CP-CORR)           DE(BSSE)
 ---------------------------------------------------------------------
           1    -291.4066300361    -291.4068659950       0.0002359589
           2    -291.4066309893    -291.4068723171       0.0002413277
     Complex    -582.8146594972
 ---------------------------------------------------------------------
  DE, kJ/mol      -3.6717311479      -2.4186000958
 ---------------------------------------------------------------------

Archival summary:
1\1\mm2.localdomain\SP\MP2\BasisUnspecified\i28\xuedong\WedJun1218:16:522019WedJun1218:16:522019\0\\#,MP2,BasisUnspecified,\\0,1\Si\H,1,1.47728\H,1,1.47733,2,109.58\H,1,1.47751,2,109.461,3,-120.078,0\H,1,1.4776,2,109.434,3,120.102,0\H,5,2.96721,1,96.1935,2,44.1,0\Si,6,1.47767,5,112.866,1,85.5563,0\H,7,1.47712,6,109.528,5,-177.107,0\H,7,1.47718,6,109.42,5,62.745,0\H,7,1.47752,6,109.246,5,-57.1033,0\\HF=-582.520555\MP2=-582.814659\\@

 Total job time:  251.48s(wall), 500.72s(cpu) 
 Wed Jun 12 18:16:52 2019

        *************************************************************
        *                                                           *
        *  Thank you very much for using Q-Chem.  Have a nice day.  *
        *                                                           *
        *************************************************************


