
Running Job 1 of 1 ../qm_inp/SiH4_SiH4_con2.110.qcinp
qchem ../qm_inp/SiH4_SiH4_con2.110.qcinp_39417.0 /scratch/xuedong/qchem39417/ 1
/home/qwang/software/qchem5.1.2/exe/qcprog.exe_s ../qm_inp/SiH4_SiH4_con2.110.qcinp_39417.0 /scratch/xuedong/qchem39417/
Check license passed

                  Welcome to Q-Chem
     A Quantum Leap Into The Future Of Chemistry


 Q-Chem 5.1, Q-Chem, Inc., Pleasanton, CA (2018)

 Yihan Shao,  Zhengting Gan,  E. Epifanovsky,  A. T. B. Gilbert,  M. Wormit,  
 J. Kussmann,  A. W. Lange,  A. Behn,  Jia Deng,  Xintian Feng,  D. Ghosh,  
 M. Goldey,  P. R. Horn,  L. D. Jacobson,  I. Kaliman,  T. Kus,  A. Landau,  
 Jie Liu,  E. I. Proynov,  R. M. Richard,  R. P. Steele,  E. J. Sundstrom,  
 H. L. Woodcock III,  P. M. Zimmerman,  D. Zuev,  B. Albrecht,  E. Alguire,  
 S. A. Baeppler,  D. Barton,  Z. Benda,  Y. A. Bernard,  E. J. Berquist,  
 K. B. Bravaya,  H. Burton,  D. Casanova,  Chun-Min Chang,  Yunqing Chen,  
 A. Chien,  K. D. Closser,  M. P. Coons,  S. Coriani,  S. Dasgupta,  
 A. L. Dempwolff,  M. Diedenhofen,  Hainam Do,  R. G. Edgar,  Po-Tung Fang,  
 S. Faraji,  S. Fatehi,  Qingguo Feng,  K. D. Fenk,  J. Fosso-Tande,  
 J. Gayvert,  Qinghui Ge,  A. Ghysels,  G. Gidofalvi,  J. Gomes,  
 J. Gonthier,  A. Gunina,  D. Hait,  M. W. D. Hanson-Heine,  
 P. H. P. Harbach,  A. W. Hauser,  J. E. Herr,  E. G. Hohenstein,  
 Z. C. Holden,  Kerwin Hui,  B. C. Huynh,  T.-C. Jagau,  Hyunjun Ji,  
 B. Kaduk,  K. Khistyaev,  Jaehoon Kim,  P. Klunzinger,  K. Koh,  
 D. Kosenkov,  L. Koulias,  T. Kowalczyk,  C. M. Krauter,  A. Kunitsa,  
 Ka Un Lao,  A. Laurent,  K. V. Lawler,  Joonho Lee,  D. Lefrancois,  
 S. Lehtola,  D. S. Levine,  Yi-Pei Li,  You-Sheng Lin,  Fenglai Liu,  
 E. Livshits,  A. Luenser,  P. Manohar,  E. Mansoor,  S. F. Manzer,  
 Shan-Ping Mao,  Yuezhi Mao,  N. Mardirossian,  A. V. Marenich,  
 T. Markovich,  L. A. Martinez-Martinez,  S. A. Maurer,  N. J. Mayhall,  
 S. C. McKenzie,  J.-M. Mewes,  A. F. Morrison,  J. W. Mullinax,  K. Nanda,  
 T. S. Nguyen-Beck,  R. Olivares-Amaya,  J. A. Parkhill,  T. M. Perrine,  
 F. Plasser,  P. Pokhilko,  S. Prager,  A. Prociuk,  E. Ramos,  D. R. Rehn,  
 F. Rob,  M. Schneider,  N. Sergueev,  S. M. Sharada,  S. Sharma,  
 D. W. Small,  T. Stauch,  T. Stein,  Yu-Chuan Su,  A. J. W. Thom,  
 A. Tkatchenko,  T. Tsuchimochi,  N. M. Tubman,  L. Vogt,  M. L. Vidal,  
 O. Vydrov,  M. A. Watson,  J. Wenzel,  M. de Wergifosse,  T. A. Wesolowski,  
 A. White,  J. Witte,  A. Yamada,  Jun Yang,  K. Yao,  S. Yeganeh,  
 S. R. Yost,  Zhi-Qiang You,  A. Zech,  Igor Ying Zhang,  Xing Zhang,  
 Yan Zhao,  Ying Zhu,  B. R. Brooks,  G. K. L. Chan,  C. J. Cramer,  
 M. S. Gordon,  W. J. Hehre,  A. Klamt,  M. W. Schmidt,  C. D. Sherrill,  
 D. G. Truhlar,  A. Aspuru-Guzik,  R. Baer,  A. T. Bell,  N. A. Besley,  
 Jeng-Da Chai,  A. E. DePrince, III,  R. A. DiStasio Jr.,  A. Dreuw,  
 B. D. Dunietz,  T. R. Furlani,  Chao-Ping Hsu,  Yousung Jung,  Jing Kong,  
 D. S. Lambrecht,  WanZhen Liang,  C. Ochsenfeld,  V. A. Rassolov,  
 L. V. Slipchenko,  J. E. Subotnik,  T. Van Voorhis,  J. M. Herbert,  
 A. I. Krylov,  P. M. W. Gill,  M. Head-Gordon

 Contributors to earlier versions of Q-Chem not listed above: 
 R. D. Adamson,  B. Austin,  J. Baker,  G. J. O. Beran,  K. Brandhorst,  
 S. T. Brown,  E. F. C. Byrd,  A. K. Chakraborty,  C.-L. Cheng,  
 Siu Hung Chien,  D. M. Chipman,  D. L. Crittenden,  H. Dachsel,  
 R. J. Doerksen,  A. D. Dutoi,  L. Fusti-Molnar,  W. A. Goddard III,  
 A. Golubeva-Zadorozhnaya,  S. R. Gwaltney,  G. Hawkins,  A. Heyden,  
 S. Hirata,  G. Kedziora,  F. J. Keil,  C. Kelley,  Jihan Kim,  R. A. King,  
 R. Z. Khaliullin,  P. P. Korambath,  W. Kurlancheek,  A. M. Lee,  M. S. Lee,  
 S. V. Levchenko,  Ching Yeh Lin,  D. Liotard,  R. C. Lochan,  I. Lotan,  
 P. E. Maslen,  N. Nair,  D. P. O'Neill,  D. Neuhauser,  E. Neuscamman,  
 C. M. Oana,  R. Olson,  B. Peters,  R. Peverati,  P. A. Pieniazek,  
 Y. M. Rhee,  J. Ritchie,  M. A. Rohrdanz,  E. Rosta,  N. J. Russ,  
 H. F. Schaefer III,  N. E. Schultz,  N. Shenvi,  A. C. Simmonett,  A. Sodt,  
 D. Stuck,  K. S. Thanthiriwatte,  V. Vanovschi,  Tao Wang,  A. Warshel,  
 C. F. Williams,  Q. Wu,  X. Xu,  W. Zhang

 Please cite Q-Chem as follows:
 Y. Shao et al., Mol. Phys. 113, 184-215 (2015)
 DOI: 10.1080/00268976.2014.952696

 Q-Chem 5.1.2 for Intel X86 EM64T Linux

 Parts of Q-Chem use Armadillo 8.300.2 (Tropical Shenanigans).
 http://arma.sourceforge.net/

 Q-Chem begins on Thu Jul  4 10:35:40 2019  

Host: 
0

     Scratch files written to /scratch/xuedong/qchem39417//
 Dec218 |scratch|qcdevops|jenkins|workspace|build_RNUM 6581   
Processing $rem in /home/qwang/software/qchem5.1.2/config/preferences.
 MEM_TOTAL  4000 
Core orbitals will be frozen
Input Ideriv = 1
Curr. Ideriv = -1
Max.  Ideriv = 1

Checking the input file for inconsistencies... 	...done.

--------------------------------------------------------------
User input:
--------------------------------------------------------------
$molecule
0 1
--
0 1
Si     2.173201226     0.002277085    -0.000827763
H     2.463893195     1.428917805     0.248702748
H     1.532427706    -0.146056866    -1.323881333
H     1.257386864    -0.502442133     1.043232525
H     3.430773868    -0.772002931     0.029153171
--
0 1
Si    -2.516455261    -0.002798421     0.000940323
H    -1.993688443     0.362991722    -1.331703417
H    -2.189938507    -1.414829448     0.287128886
H    -3.982189466     0.180640040     0.022676422
H    -1.895373116     0.862701846     1.024887349
$end

$rem
BASIS = aug-cc-pVTZ
JOB_TYPE  =  BSSE
METHOD  =  MP2
SCF_CONVERGENCE  =  7
SCF_MAX_CYCLES  =  200
$end

--------------------------------------------------------------
 ----------------------------------------------------------------
             Standard Nuclear Orientation (Angstroms)
    I     Atom           X                Y                Z
 ----------------------------------------------------------------
    1      Si      2.3449322680     0.0000682954    -0.0000653996
    2      H       2.6370033863     1.4390556104     0.1614307610
    3      H       1.7044670364    -0.2286575016    -1.3117639972
    4      H       1.4282364729    -0.4386079186     1.0726653765
    5      H       3.6016980186    -0.7721679579     0.0779625875
    6      Si     -2.3447272898    -0.0001788337     0.0000864094
    7      H      -1.8211211715     0.2824892165    -1.3523049240
    8      H      -2.0197614359    -1.3922782672     0.3726519294
    9      H      -3.8102796773     0.1857207889     0.0099056004
   10      H      -1.7231123241     0.9259935665     0.9691585298
 ----------------------------------------------------------------
 Molecular Point Group                 C1    NOp =  1
 Largest Abelian Subgroup              C1    NOp =  1
 Nuclear Repulsion Energy =    79.1473776670 hartrees
 There are       18 alpha and       18 beta electrons
 Requested basis set is aug-cc-pVTZ
 There are 104 shells and 284 basis functions

 Total QAlloc Memory Limit   4000 MB
 Mega-Array Size       188 MB
 MEM_STATIC part       192 MB

                       Distance Matrix (Angstroms)
             Si(  1)   H (  2)   H (  3)   H (  4)   H (  5)   Si(  6)
   H (  2)  1.477183
   H (  3)  1.477520  2.412715
   H (  4)  1.477674  2.411864  2.409541
   H (  5)  1.477125  2.413941  2.413758  2.413427
   Si(  6)  4.689660  5.187973  4.262526  3.946885  5.996833
   H (  7)  4.389113  4.848084  3.562680  4.118105  5.706569  1.477507
   H (  8)  4.596531  5.454037  4.249841  3.645298  5.663231  1.477277
   H (  9)  6.158019  6.569724  5.686031  5.381570  7.473928  1.477328
   H ( 10)  4.283190  4.463885  4.275994  3.435673  5.659646  1.477600
             H (  7)   H (  8)   H (  9)
   H (  8)  2.412422
   H (  9)  2.412827  2.414047
   H ( 10)  2.410995  2.412096  2.413387
 
 A cutoff of  1.0D-10 yielded   5002 shell pairs
 There are     36948 function pairs (     46501 Cartesian)
 
 -------------------------------------------------------
 OpenMP Integral Computing Module                       
 Release: version 1.0, May 2013, Q-Chem Inc. Pittsburgh 
 -------------------------------------------------------
 Integral Job Info:
 Integral job number is                      11
 Integral operator is                         1
 short-range coefficients                     0
 long-range coefficients              100000000
 Omega coefficients                           0
 if combine SR and LR in K                    0
 Integral screening is                        0
 Integral computing path is                   2
 max size of driver memory is            800000
 size of driver memory is                776718
 size of scratch memory is             29531563
 max col of scratch BK array              10000
 max len of scratch array in speh3          662
 max len of scratch index in speh4           32
 max int batch size is                      520
 min int batch size is                       52
 fixed nKL is                                31
 max L of basis functions is                  3
 order of int derivative is                   0
 number of shells is                        104
 number of basis is                         318
 number of cartesian basis is               318
 number of contracted shell pairs          5002
 number of primitive shell pairs          16763
 maxK2 (contraction) of shell pair          169
 max number of K2 of shell pair               1
 max number of CS2 of shell pair            925
 max number of PS2 of shell pair           2028
 mem total for path MDJ                  627244
 -------------------------------------------------------
 Smallest overlap matrix eigenvalue = 1.41E-05

 Scale SEOQF with 1.000000e-01/1.000000e-01/1.000000e-01

 Standard Electronic Orientation quadrupole field applied
 Nucleus-field energy     =     0.0000000071 hartrees
 Guess MOs from converged MOs on fragments

-----------------------------------------------------------------
 SCF on fragment 1 out of 2
/home/qwang/software/qchem5.1.2/exe/qcprog.exe /scratch/xuedong/qchem39417/Frg1.input /scratch/xuedong/qchem39417/Frg1/ > /dev/null 
 SCF on fragment 2 out of 2
/home/qwang/software/qchem5.1.2/exe/qcprog.exe /scratch/xuedong/qchem39417/Frg2.input /scratch/xuedong/qchem39417/Frg2/ > /dev/null 
-----------------------------------------------------------------
 Done with SCF on isolated fragments
-----------------------------------------------------------------

 User-specified occupied guess orbitals will be used
 A restricted Hartree-Fock SCF calculation will be
 performed using Pulay DIIS extrapolation
 SCF converges when DIIS error is below 1.0E-07
 using 6 threads for integral computing
 -------------------------------------------------------
 OpenMP Integral computing Module                
 Release: version 1.0, May 2013, Q-Chem Inc. Pittsburgh 
 -------------------------------------------------------
 ---------------------------------------
  Cycle       Energy         DIIS Error
 ---------------------------------------
    1    -582.5214232376      8.87E-05
    2    -582.5215467969      9.94E-06
    3    -582.5215490800      1.14E-06
    4    -582.5215491229      2.52E-07
    5    -582.5215491254      5.54E-08 Convergence criterion met
 ---------------------------------------
 SCF time:  CPU 127.79 s  wall 21.34 s

-----------------------------------------------------------------
 SCF CP correction for fragment 1 out of 2
/home/qwang/software/qchem5.1.2/exe/qcprog.exe /scratch/xuedong/qchem39417/Frg1.input /scratch/xuedong/qchem39417/Frg1BSSE/ > /dev/null 
 SCF CP correction for fragment 2 out of 2
/home/qwang/software/qchem5.1.2/exe/qcprog.exe /scratch/xuedong/qchem39417/Frg2.input /scratch/xuedong/qchem39417/Frg2BSSE/ > /dev/null 
-----------------------------------------------------------------
 Done with counterpoise correction on fragments
-----------------------------------------------------------------

 SCF   energy in the final basis set = -582.52154913
 Total energy in the final basis set = -582.52154913
 
 Components of the MP2 correlation energy:
        aaaa  correlation energy =        -0.0149898947 au
        abab  correlation energy =        -0.2627857504 au
        bbbb  correlation energy =        -0.0149898947 au
        non-Brillouin singles    =        -0.0000000000 au

 Total  MP2   correlation energy =                    -0.29276554 au
        MP2         total energy =                  -582.81431467 au
 
 --------------------------------------------------------------
 
                    Orbital Energies (a.u.)
 --------------------------------------------------------------
 
 Alpha MOs
 -- Occupied --
-68.775 -68.774  -6.124  -6.124  -4.230  -4.230  -4.230  -4.230
 -4.230  -4.230  -0.734  -0.730  -0.491  -0.490  -0.488  -0.486
 -0.484  -0.483
 -- Virtual --
  0.030   0.040   0.052   0.053   0.060   0.062   0.062   0.068
  0.074   0.077   0.081   0.087   0.095   0.110   0.142   0.146
  0.150   0.153   0.157   0.158   0.159   0.163   0.169   0.178
  0.183   0.207   0.231   0.236   0.239   0.246   0.249   0.261
  0.263   0.271   0.276   0.278   0.287   0.296   0.302   0.309
  0.313   0.323   0.333   0.334   0.345   0.350   0.355   0.381
  0.388   0.406   0.413   0.420   0.427   0.431   0.444   0.451
  0.464   0.476   0.490   0.509   0.511   0.522   0.529   0.551
  0.559   0.577   0.585   0.589   0.595   0.603   0.606   0.613
  0.616   0.626   0.630   0.636   0.646   0.654   0.657   0.660
  0.669   0.670   0.680   0.685   0.693   0.697   0.699   0.754
  0.800   0.858   0.918   0.933   0.939   0.950   0.954   0.960
  0.966   0.966   0.975   0.981   0.985   0.994   1.000   1.014
  1.028   1.035   1.053   1.057   1.082   1.088   1.095   1.101
  1.111   1.116   1.140   1.155   1.172   1.182   1.198   1.200
  1.201   1.207   1.216   1.227   1.240   1.251   1.256   1.263
  1.267   1.279   1.281   1.304   1.320   1.324   1.341   1.342
  1.349   1.351   1.357   1.363   1.366   1.373   1.376   1.380
  1.391   1.403   1.408   1.413   1.429   1.440   1.461   1.472
  1.481   1.489   1.494   1.508   1.515   1.525   1.559   1.611
  1.642   1.790   1.899   1.908   1.919   1.927   1.959   1.964
  1.986   1.989   1.991   1.998   2.001   2.005   2.008   2.016
  2.032   2.039   2.042   2.060   2.230   2.232   2.236   2.242
  2.244   2.256   3.043   3.059   3.071   3.073   3.105   3.142
  3.295   3.347   3.538   3.563   3.568   3.599   3.616   3.660
  3.929   3.944   3.952   3.971   3.973   3.982   3.993   3.996
  4.027   4.052   4.060   4.062   4.068   4.077   4.082   4.093
  4.149   4.153   4.157   4.161   4.168   4.178   4.260   4.264
  4.268   4.269   4.271   4.274   4.280   4.282   4.286   4.289
  4.299   4.319   4.424   4.427   4.439   4.447   4.473   4.483
  4.559   4.559   4.562   4.573   4.577   4.587   4.742   4.745
  4.768   4.776   4.832   4.835   4.843   4.846   4.853   4.860
  4.945   4.980   5.093   5.099   5.104   5.106   5.127   5.147
  8.729   8.860
 --------------------------------------------------------------
 
          Ground-State Mulliken Net Atomic Charges

     Atom                 Charge (a.u.)
  ----------------------------------------
      1 Si                    1.541403
      2 H                    -0.391869
      3 H                    -0.373894
      4 H                    -0.365132
      5 H                    -0.410658
      6 Si                    1.464760
      7 H                    -0.352445
      8 H                    -0.362423
      9 H                    -0.411044
     10 H                    -0.338700
  ----------------------------------------
  Sum of atomic charges =     0.000000

 -----------------------------------------------------------------
                    Cartesian Multipole Moments
 -----------------------------------------------------------------
    Charge (ESU x 10^10)
                 0.0000
    Dipole Moment (Debye)
         X       0.0233      Y      -0.0085      Z       0.0035
       Tot       0.0251
    Quadrupole Moments (Debye-Ang)
        XX     -33.3904     XY       0.0320     YY     -33.5224
        XZ      -0.0064     YZ      -0.0010     ZZ     -33.4951
    Octopole Moments (Debye-Ang^2)
       XXX       1.3946    XXY       0.4697    XYY      -1.2797
       YYY      -0.3342    XXZ      -0.3158    XYZ      -0.2433
       YYZ      -1.1187    XZZ       0.3469    YZZ      -0.1953
       ZZZ       1.4515
    Hexadecapole Moments (Debye-Ang^3)
      XXXX   -1209.6651   XXXY       9.1360   XXYY    -212.6884
      XYYY      -5.7109   YYYY     -85.3747   XXXZ      -1.8187
      XXYZ      -0.1334   XYYZ       1.3213   YYYZ       0.0033
      XXZZ    -202.5000   XYZZ       2.9271   YYZZ     -28.5950
      XZZZ      -0.7040   YZZZ       0.0033   ZZZZ     -85.2551
 -----------------------------------------------------------------

 ---------------------------------------------------------------------
 *                     Fragment's binding energy                     *
 ---------------------------------------------------------------------
    Fragment           E(TOTAL)         E(CP-CORR)           DE(BSSE)
 ---------------------------------------------------------------------
           1    -291.4066300433    -291.4067685443       0.0001385010
           2    -291.4066309966    -291.4067675301       0.0001365335
     Complex    -582.8143146652
 ---------------------------------------------------------------------
  DE, kJ/mol      -2.7663260798      -2.0442144791
 ---------------------------------------------------------------------

Archival summary:
1\1\gm4.localdomain\SP\MP2\BasisUnspecified\i28\xuedong\ThuJul410:39:192019ThuJul410:39:192019\0\\#,MP2,BasisUnspecified,\\0,1\Si\H,1,1.47728\H,1,1.47733,2,109.58\H,1,1.47751,2,109.461,3,-120.078,0\H,1,1.4776,2,109.434,3,120.102,0\H,5,3.43567,1,99.014,2,46.9507,0\Si,6,1.47767,5,115.419,1,83.8023,0\H,7,1.47712,6,109.528,5,-173.743,0\H,7,1.47718,6,109.42,5,66.109,0\H,7,1.47752,6,109.246,5,-53.7394,0\\HF=-582.521549\MP2=-582.814315\\@

 Total job time:  218.46s(wall), 433.36s(cpu) 
 Thu Jul  4 10:39:19 2019

        *************************************************************
        *                                                           *
        *  Thank you very much for using Q-Chem.  Have a nice day.  *
        *                                                           *
        *************************************************************


