
Running Job 1 of 1 ../qm_inp/SiH4_SiH4_con1.105.qcinp
qchem ../qm_inp/SiH4_SiH4_con1.105.qcinp_1070.0 /scratch/xuedong/qchem1070/ 1
/home/qwang/software/qchem5.1.2/exe/qcprog.exe_s ../qm_inp/SiH4_SiH4_con1.105.qcinp_1070.0 /scratch/xuedong/qchem1070/
Check license passed

                  Welcome to Q-Chem
     A Quantum Leap Into The Future Of Chemistry


 Q-Chem 5.1, Q-Chem, Inc., Pleasanton, CA (2018)

 Yihan Shao,  Zhengting Gan,  E. Epifanovsky,  A. T. B. Gilbert,  M. Wormit,  
 J. Kussmann,  A. W. Lange,  A. Behn,  Jia Deng,  Xintian Feng,  D. Ghosh,  
 M. Goldey,  P. R. Horn,  L. D. Jacobson,  I. Kaliman,  T. Kus,  A. Landau,  
 Jie Liu,  E. I. Proynov,  R. M. Richard,  R. P. Steele,  E. J. Sundstrom,  
 H. L. Woodcock III,  P. M. Zimmerman,  D. Zuev,  B. Albrecht,  E. Alguire,  
 S. A. Baeppler,  D. Barton,  Z. Benda,  Y. A. Bernard,  E. J. Berquist,  
 K. B. Bravaya,  H. Burton,  D. Casanova,  Chun-Min Chang,  Yunqing Chen,  
 A. Chien,  K. D. Closser,  M. P. Coons,  S. Coriani,  S. Dasgupta,  
 A. L. Dempwolff,  M. Diedenhofen,  Hainam Do,  R. G. Edgar,  Po-Tung Fang,  
 S. Faraji,  S. Fatehi,  Qingguo Feng,  K. D. Fenk,  J. Fosso-Tande,  
 J. Gayvert,  Qinghui Ge,  A. Ghysels,  G. Gidofalvi,  J. Gomes,  
 J. Gonthier,  A. Gunina,  D. Hait,  M. W. D. Hanson-Heine,  
 P. H. P. Harbach,  A. W. Hauser,  J. E. Herr,  E. G. Hohenstein,  
 Z. C. Holden,  Kerwin Hui,  B. C. Huynh,  T.-C. Jagau,  Hyunjun Ji,  
 B. Kaduk,  K. Khistyaev,  Jaehoon Kim,  P. Klunzinger,  K. Koh,  
 D. Kosenkov,  L. Koulias,  T. Kowalczyk,  C. M. Krauter,  A. Kunitsa,  
 Ka Un Lao,  A. Laurent,  K. V. Lawler,  Joonho Lee,  D. Lefrancois,  
 S. Lehtola,  D. S. Levine,  Yi-Pei Li,  You-Sheng Lin,  Fenglai Liu,  
 E. Livshits,  A. Luenser,  P. Manohar,  E. Mansoor,  S. F. Manzer,  
 Shan-Ping Mao,  Yuezhi Mao,  N. Mardirossian,  A. V. Marenich,  
 T. Markovich,  L. A. Martinez-Martinez,  S. A. Maurer,  N. J. Mayhall,  
 S. C. McKenzie,  J.-M. Mewes,  A. F. Morrison,  J. W. Mullinax,  K. Nanda,  
 T. S. Nguyen-Beck,  R. Olivares-Amaya,  J. A. Parkhill,  T. M. Perrine,  
 F. Plasser,  P. Pokhilko,  S. Prager,  A. Prociuk,  E. Ramos,  D. R. Rehn,  
 F. Rob,  M. Schneider,  N. Sergueev,  S. M. Sharada,  S. Sharma,  
 D. W. Small,  T. Stauch,  T. Stein,  Yu-Chuan Su,  A. J. W. Thom,  
 A. Tkatchenko,  T. Tsuchimochi,  N. M. Tubman,  L. Vogt,  M. L. Vidal,  
 O. Vydrov,  M. A. Watson,  J. Wenzel,  M. de Wergifosse,  T. A. Wesolowski,  
 A. White,  J. Witte,  A. Yamada,  Jun Yang,  K. Yao,  S. Yeganeh,  
 S. R. Yost,  Zhi-Qiang You,  A. Zech,  Igor Ying Zhang,  Xing Zhang,  
 Yan Zhao,  Ying Zhu,  B. R. Brooks,  G. K. L. Chan,  C. J. Cramer,  
 M. S. Gordon,  W. J. Hehre,  A. Klamt,  M. W. Schmidt,  C. D. Sherrill,  
 D. G. Truhlar,  A. Aspuru-Guzik,  R. Baer,  A. T. Bell,  N. A. Besley,  
 Jeng-Da Chai,  A. E. DePrince, III,  R. A. DiStasio Jr.,  A. Dreuw,  
 B. D. Dunietz,  T. R. Furlani,  Chao-Ping Hsu,  Yousung Jung,  Jing Kong,  
 D. S. Lambrecht,  WanZhen Liang,  C. Ochsenfeld,  V. A. Rassolov,  
 L. V. Slipchenko,  J. E. Subotnik,  T. Van Voorhis,  J. M. Herbert,  
 A. I. Krylov,  P. M. W. Gill,  M. Head-Gordon

 Contributors to earlier versions of Q-Chem not listed above: 
 R. D. Adamson,  B. Austin,  J. Baker,  G. J. O. Beran,  K. Brandhorst,  
 S. T. Brown,  E. F. C. Byrd,  A. K. Chakraborty,  C.-L. Cheng,  
 Siu Hung Chien,  D. M. Chipman,  D. L. Crittenden,  H. Dachsel,  
 R. J. Doerksen,  A. D. Dutoi,  L. Fusti-Molnar,  W. A. Goddard III,  
 A. Golubeva-Zadorozhnaya,  S. R. Gwaltney,  G. Hawkins,  A. Heyden,  
 S. Hirata,  G. Kedziora,  F. J. Keil,  C. Kelley,  Jihan Kim,  R. A. King,  
 R. Z. Khaliullin,  P. P. Korambath,  W. Kurlancheek,  A. M. Lee,  M. S. Lee,  
 S. V. Levchenko,  Ching Yeh Lin,  D. Liotard,  R. C. Lochan,  I. Lotan,  
 P. E. Maslen,  N. Nair,  D. P. O'Neill,  D. Neuhauser,  E. Neuscamman,  
 C. M. Oana,  R. Olson,  B. Peters,  R. Peverati,  P. A. Pieniazek,  
 Y. M. Rhee,  J. Ritchie,  M. A. Rohrdanz,  E. Rosta,  N. J. Russ,  
 H. F. Schaefer III,  N. E. Schultz,  N. Shenvi,  A. C. Simmonett,  A. Sodt,  
 D. Stuck,  K. S. Thanthiriwatte,  V. Vanovschi,  Tao Wang,  A. Warshel,  
 C. F. Williams,  Q. Wu,  X. Xu,  W. Zhang

 Please cite Q-Chem as follows:
 Y. Shao et al., Mol. Phys. 113, 184-215 (2015)
 DOI: 10.1080/00268976.2014.952696

 Q-Chem 5.1.2 for Intel X86 EM64T Linux

 Parts of Q-Chem use Armadillo 8.300.2 (Tropical Shenanigans).
 http://arma.sourceforge.net/

 Q-Chem begins on Wed Jun 12 18:29:59 2019  

Host: 
0

     Scratch files written to /scratch/xuedong/qchem1070//
 Dec218 |scratch|qcdevops|jenkins|workspace|build_RNUM 6581   
Processing $rem in /home/qwang/software/qchem5.1.2/config/preferences.
 MEM_TOTAL  4000 
Core orbitals will be frozen
Input Ideriv = 1
Curr. Ideriv = -1
Max.  Ideriv = 1

Checking the input file for inconsistencies... 	...done.

--------------------------------------------------------------
User input:
--------------------------------------------------------------
$molecule
0 1
--
0 1
Si    -2.355587420     0.000852678    -0.001125865
H    -2.728992107     0.287798069    -1.400983250
H    -2.856535997     1.078823011     0.875456972
H    -0.884338632    -0.075218668     0.107530826
H    -2.944965592    -1.288253407     0.413844090
--
0 1
Si     2.529278469    -0.000935650     0.001263695
H     1.971962036     0.252189355    -1.343312885
H     2.052050372     1.038757214     0.936078072
H     4.004919431     0.035151200    -0.063306560
H     2.089600963    -1.329414800     0.474930593
$end

$rem
BASIS = aug-cc-pVTZ
JOB_TYPE  =  BSSE
METHOD  =  MP2
SCF_CONVERGENCE  =  8
SCF_MAX_CYCLES  =  200
$end

--------------------------------------------------------------
 ----------------------------------------------------------------
             Standard Nuclear Orientation (Angstroms)
    I     Atom           X                Y                Z
 ----------------------------------------------------------------
    1      Si     -2.4426816240     0.0000223383    -0.0000363545
    2      H      -2.8168473086     0.2397019686    -1.4085544167
    3      H      -2.9435994492     1.1066330108     0.8401190701
    4      H      -0.9713549435    -0.0718616630     0.1104019176
    5      H      -3.0314071854    -1.2746311619     0.4582450649
    6      Si      2.4421851757    -0.0000310203     0.0000543044
    7      H       1.8841458051     0.2076401765    -1.3519903654
    8      H       1.9650288245     1.0702859638     0.8996815592
    9      H       3.9177826742     0.0343681715    -0.0664027878
   10      H       2.0032018601    -1.3120149187     0.5182486602
 ----------------------------------------------------------------
 Molecular Point Group                 C1    NOp =  1
 Largest Abelian Subgroup              C1    NOp =  1
 Nuclear Repulsion Energy =    77.8827819338 hartrees
 There are       18 alpha and       18 beta electrons
 Requested basis set is aug-cc-pVTZ
 There are 104 shells and 284 basis functions

 Total QAlloc Memory Limit   4000 MB
 Mega-Array Size       188 MB
 MEM_STATIC part       192 MB

                       Distance Matrix (Angstroms)
             Si(  1)   H (  2)   H (  3)   H (  4)   H (  5)   Si(  6)
   H (  2)  1.476946
   H (  3)  1.476945  2.413331
   H (  4)  1.477216  2.410424  2.410619
   H (  5)  1.476943  2.413334  2.413288  2.410698
   Si(  6)  4.884867  5.449686  5.562112  3.416079  5.638684
   H (  7)  4.537876  4.701443  5.377793  3.220341  5.443964  1.477349
   H (  8)  4.624161  5.374399  4.909124  3.248048  5.536955  1.477358
   H (  9)  6.360903  6.870136  7.003578  4.893487  7.090837  1.477494
   H ( 10)  4.664326  5.417866  5.515823  3.248432  5.035105  1.477340
             H (  7)   H (  8)   H (  9)
   H (  8)  2.412618
   H (  9)  2.412144  2.412404
   H ( 10)  2.412741  2.412945  2.412506
 
 A cutoff of  1.0D-11 yielded   5040 shell pairs
 There are     37356 function pairs (     47017 Cartesian)
 
 -------------------------------------------------------
 OpenMP Integral Computing Module                       
 Release: version 1.0, May 2013, Q-Chem Inc. Pittsburgh 
 -------------------------------------------------------
 Integral Job Info:
 Integral job number is                      11
 Integral operator is                         1
 short-range coefficients                     0
 long-range coefficients              100000000
 Omega coefficients                           0
 if combine SR and LR in K                    0
 Integral screening is                        0
 Integral computing path is                   2
 max size of driver memory is            800000
 size of driver memory is                776718
 size of scratch memory is             29531563
 max col of scratch BK array              10000
 max len of scratch array in speh3          662
 max len of scratch index in speh4           32
 max int batch size is                      520
 min int batch size is                       52
 fixed nKL is                                31
 max L of basis functions is                  3
 order of int derivative is                   0
 number of shells is                        104
 number of basis is                         318
 number of cartesian basis is               318
 number of contracted shell pairs          5040
 number of primitive shell pairs          16810
 maxK2 (contraction) of shell pair          169
 max number of K2 of shell pair               1
 max number of CS2 of shell pair            924
 max number of PS2 of shell pair           2028
 mem total for path MDJ                  630156
 -------------------------------------------------------
 Smallest overlap matrix eigenvalue = 1.21E-05

 Scale SEOQF with 1.000000e-01/1.000000e-01/1.000000e-01

 Standard Electronic Orientation quadrupole field applied
 Nucleus-field energy     =     0.0000000077 hartrees
 Guess MOs from converged MOs on fragments

-----------------------------------------------------------------
 SCF on fragment 1 out of 2
/home/qwang/software/qchem5.1.2/exe/qcprog.exe /scratch/xuedong/qchem1070/Frg1.input /scratch/xuedong/qchem1070/Frg1/ > /dev/null 
 SCF on fragment 2 out of 2
/home/qwang/software/qchem5.1.2/exe/qcprog.exe /scratch/xuedong/qchem1070/Frg2.input /scratch/xuedong/qchem1070/Frg2/ > /dev/null 
-----------------------------------------------------------------
 Done with SCF on isolated fragments
-----------------------------------------------------------------

 User-specified occupied guess orbitals will be used
 A restricted Hartree-Fock SCF calculation will be
 performed using Pulay DIIS extrapolation
 SCF converges when DIIS error is below 1.0E-08
 using 6 threads for integral computing
 -------------------------------------------------------
 OpenMP Integral computing Module                
 Release: version 1.0, May 2013, Q-Chem Inc. Pittsburgh 
 -------------------------------------------------------
 ---------------------------------------
  Cycle       Energy         DIIS Error
 ---------------------------------------
    1    -582.5212801764      1.17E-04
    2    -582.5214840899      1.52E-05
    3    -582.5214906183      2.74E-06
    4    -582.5214908804      5.35E-07
    5    -582.5214908886      1.31E-07
    6    -582.5214908892      2.05E-08
    7    -582.5214908892      3.48E-09 Convergence criterion met
 ---------------------------------------
 SCF time:  CPU 172.61 s  wall 28.79 s

-----------------------------------------------------------------
 SCF CP correction for fragment 1 out of 2
/home/qwang/software/qchem5.1.2/exe/qcprog.exe /scratch/xuedong/qchem1070/Frg1.input /scratch/xuedong/qchem1070/Frg1BSSE/ > /dev/null 
 SCF CP correction for fragment 2 out of 2
/home/qwang/software/qchem5.1.2/exe/qcprog.exe /scratch/xuedong/qchem1070/Frg2.input /scratch/xuedong/qchem1070/Frg2BSSE/ > /dev/null 
-----------------------------------------------------------------
 Done with counterpoise correction on fragments
-----------------------------------------------------------------

 SCF   energy in the final basis set = -582.52149089
 Total energy in the final basis set = -582.52149089
 
 Components of the MP2 correlation energy:
        aaaa  correlation energy =        -0.0150072471 au
        abab  correlation energy =        -0.2628807562 au
        bbbb  correlation energy =        -0.0150072471 au
        non-Brillouin singles    =        -0.0000000000 au

 Total  MP2   correlation energy =                    -0.29289525 au
        MP2         total energy =                  -582.81438614 au
 
 --------------------------------------------------------------
 
                    Orbital Energies (a.u.)
 --------------------------------------------------------------
 
 Alpha MOs
 -- Occupied --
-68.775 -68.773  -6.125  -6.123  -4.231  -4.231  -4.231  -4.229
 -4.229  -4.229  -0.734  -0.729  -0.494  -0.488  -0.488  -0.486
 -0.486  -0.480
 -- Virtual --
  0.029   0.040   0.052   0.052   0.055   0.062   0.062   0.070
  0.072   0.074   0.079   0.081   0.109   0.129   0.133   0.135
  0.144   0.149   0.160   0.160   0.162   0.162   0.175   0.180
  0.182   0.199   0.234   0.240   0.242   0.248   0.257   0.259
  0.263   0.264   0.267   0.286   0.288   0.293   0.305   0.312
  0.315   0.319   0.329   0.333   0.335   0.341   0.343   0.383
  0.390   0.394   0.413   0.415   0.419   0.421   0.444   0.460
  0.466   0.469   0.502   0.505   0.512   0.529   0.532   0.541
  0.546   0.588   0.592   0.596   0.603   0.604   0.612   0.613
  0.621   0.624   0.625   0.626   0.643   0.655   0.656   0.667
  0.670   0.672   0.672   0.676   0.723   0.730   0.754   0.779
  0.855   0.882   0.920   0.929   0.941   0.947   0.951   0.959
  0.959   0.966   0.978   0.980   0.985   0.993   0.999   1.009
  1.023   1.029   1.032   1.035   1.077   1.082   1.087   1.089
  1.091   1.114   1.116   1.123   1.167   1.177   1.197   1.198
  1.200   1.205   1.227   1.237   1.248   1.249   1.255   1.264
  1.269   1.275   1.278   1.282   1.314   1.332   1.334   1.341
  1.345   1.348   1.350   1.355   1.357   1.357   1.371   1.373
  1.385   1.386   1.415   1.433   1.440   1.451   1.457   1.472
  1.481   1.486   1.487   1.491   1.569   1.586   1.594   1.618
  1.733   1.785   1.895   1.897   1.923   1.924   1.963   1.980
  1.984   1.992   1.993   2.003   2.005   2.015   2.021   2.021
  2.031   2.052   2.058   2.079   2.230   2.231   2.237   2.238
  2.258   2.423   3.065   3.066   3.074   3.075   3.116   3.214
  3.285   3.352   3.553   3.559   3.581   3.611   3.628   3.665
  3.929   3.936   3.958   3.960   3.974   3.978   3.985   3.987
  3.997   4.013   4.061   4.062   4.063   4.083   4.088   4.093
  4.150   4.153   4.158   4.163   4.175   4.208   4.264   4.265
  4.266   4.266   4.269   4.272   4.286   4.287   4.288   4.291
  4.315   4.328   4.422   4.429   4.432   4.435   4.464   4.469
  4.558   4.560   4.567   4.570   4.572   4.622   4.748   4.753
  4.765   4.771   4.830   4.831   4.837   4.849   4.850   4.945
  4.969   4.989   5.091   5.091   5.111   5.114   5.128   5.160
  8.725   8.945
 --------------------------------------------------------------
 
          Ground-State Mulliken Net Atomic Charges

     Atom                 Charge (a.u.)
  ----------------------------------------
      1 Si                    1.671303
      2 H                    -0.412506
      3 H                    -0.420887
      4 H                    -0.370804
      5 H                    -0.425512
      6 Si                    1.599247
      7 H                    -0.364743
      8 H                    -0.368445
      9 H                    -0.536532
     10 H                    -0.371122
  ----------------------------------------
  Sum of atomic charges =    -0.000000

 -----------------------------------------------------------------
                    Cartesian Multipole Moments
 -----------------------------------------------------------------
    Charge (ESU x 10^10)
                -0.0000
    Dipole Moment (Debye)
         X      -0.0770      Y      -0.0008      Z       0.0006
       Tot       0.0770
    Quadrupole Moments (Debye-Ang)
        XX     -33.5159     XY      -0.0062     YY     -33.5147
        XZ       0.0105     YZ       0.0001     ZZ     -33.5135
    Octopole Moments (Debye-Ang^2)
       XXX      -4.4955    XXY       0.0829    XYY       1.5684
       YYY       0.9853    XXZ      -0.0754    XYZ       0.0087
       YYZ      -2.0379    XZZ       1.4589    YZZ      -1.0803
       ZZZ       2.1305
    Hexadecapole Moments (Debye-Ang^3)
      XXXX   -1286.0185   XXXY      -1.8100   XXYY    -229.2169
      XYYY       0.5483   YYYY     -85.4384   XXXZ       2.9234
      XXYZ      -0.0013   XYYZ      -0.4420   YYYZ       0.0092
      XXZZ    -227.6130   XYZZ       0.0257   YYZZ     -28.4786
      XZZZ      -0.4899   YZZZ      -0.0052   ZZZZ     -85.4087
 -----------------------------------------------------------------

 ---------------------------------------------------------------------
 *                     Fragment's binding energy                     *
 ---------------------------------------------------------------------
    Fragment           E(TOTAL)         E(CP-CORR)           DE(BSSE)
 ---------------------------------------------------------------------
           1    -291.4066296742    -291.4067858006       0.0001561264
           2    -291.4066314634    -291.4067997113       0.0001682478
     Complex    -582.8143861397
 ---------------------------------------------------------------------
  DE, kJ/mol      -2.9537279550      -2.1020733272
 ---------------------------------------------------------------------

Archival summary:
1\1\mm2.localdomain\SP\MP2\BasisUnspecified\i28\xuedong\WedJun1218:33:392019WedJun1218:33:392019\0\\#,MP2,BasisUnspecified,\\0,1\Si\H,1,1.47734\H,1,1.47735,2,109.488\H,1,1.47736,2,109.501,3,120.038,0\H,1,1.47749,2,109.464,3,-119.967,0\H,3,3.22034,1,84.6719,2,60.0321,0\Si,6,1.47722,3,147.672,1,174.439,0\H,7,1.47694,6,109.38,3,124.933,0\H,7,1.47695,6,109.374,3,-115.063,0\H,7,1.47695,6,109.361,3,4.93342,0\\HF=-582.521491\MP2=-582.814386\\@

 Total job time:  219.79s(wall), 450.73s(cpu) 
 Wed Jun 12 18:33:39 2019

        *************************************************************
        *                                                           *
        *  Thank you very much for using Q-Chem.  Have a nice day.  *
        *                                                           *
        *************************************************************


