
Running Job 1 of 1 ../qm_inp/SiH4_SiH4_con1.150.qcinp
qchem ../qm_inp/SiH4_SiH4_con1.150.qcinp_3038.0 /scratch/xuedong/qchem3038/ 1
/home/qwang/software/qchem5.1.2/exe/qcprog.exe_s ../qm_inp/SiH4_SiH4_con1.150.qcinp_3038.0 /scratch/xuedong/qchem3038/
Check license passed

                  Welcome to Q-Chem
     A Quantum Leap Into The Future Of Chemistry


 Q-Chem 5.1, Q-Chem, Inc., Pleasanton, CA (2018)

 Yihan Shao,  Zhengting Gan,  E. Epifanovsky,  A. T. B. Gilbert,  M. Wormit,  
 J. Kussmann,  A. W. Lange,  A. Behn,  Jia Deng,  Xintian Feng,  D. Ghosh,  
 M. Goldey,  P. R. Horn,  L. D. Jacobson,  I. Kaliman,  T. Kus,  A. Landau,  
 Jie Liu,  E. I. Proynov,  R. M. Richard,  R. P. Steele,  E. J. Sundstrom,  
 H. L. Woodcock III,  P. M. Zimmerman,  D. Zuev,  B. Albrecht,  E. Alguire,  
 S. A. Baeppler,  D. Barton,  Z. Benda,  Y. A. Bernard,  E. J. Berquist,  
 K. B. Bravaya,  H. Burton,  D. Casanova,  Chun-Min Chang,  Yunqing Chen,  
 A. Chien,  K. D. Closser,  M. P. Coons,  S. Coriani,  S. Dasgupta,  
 A. L. Dempwolff,  M. Diedenhofen,  Hainam Do,  R. G. Edgar,  Po-Tung Fang,  
 S. Faraji,  S. Fatehi,  Qingguo Feng,  K. D. Fenk,  J. Fosso-Tande,  
 J. Gayvert,  Qinghui Ge,  A. Ghysels,  G. Gidofalvi,  J. Gomes,  
 J. Gonthier,  A. Gunina,  D. Hait,  M. W. D. Hanson-Heine,  
 P. H. P. Harbach,  A. W. Hauser,  J. E. Herr,  E. G. Hohenstein,  
 Z. C. Holden,  Kerwin Hui,  B. C. Huynh,  T.-C. Jagau,  Hyunjun Ji,  
 B. Kaduk,  K. Khistyaev,  Jaehoon Kim,  P. Klunzinger,  K. Koh,  
 D. Kosenkov,  L. Koulias,  T. Kowalczyk,  C. M. Krauter,  A. Kunitsa,  
 Ka Un Lao,  A. Laurent,  K. V. Lawler,  Joonho Lee,  D. Lefrancois,  
 S. Lehtola,  D. S. Levine,  Yi-Pei Li,  You-Sheng Lin,  Fenglai Liu,  
 E. Livshits,  A. Luenser,  P. Manohar,  E. Mansoor,  S. F. Manzer,  
 Shan-Ping Mao,  Yuezhi Mao,  N. Mardirossian,  A. V. Marenich,  
 T. Markovich,  L. A. Martinez-Martinez,  S. A. Maurer,  N. J. Mayhall,  
 S. C. McKenzie,  J.-M. Mewes,  A. F. Morrison,  J. W. Mullinax,  K. Nanda,  
 T. S. Nguyen-Beck,  R. Olivares-Amaya,  J. A. Parkhill,  T. M. Perrine,  
 F. Plasser,  P. Pokhilko,  S. Prager,  A. Prociuk,  E. Ramos,  D. R. Rehn,  
 F. Rob,  M. Schneider,  N. Sergueev,  S. M. Sharada,  S. Sharma,  
 D. W. Small,  T. Stauch,  T. Stein,  Yu-Chuan Su,  A. J. W. Thom,  
 A. Tkatchenko,  T. Tsuchimochi,  N. M. Tubman,  L. Vogt,  M. L. Vidal,  
 O. Vydrov,  M. A. Watson,  J. Wenzel,  M. de Wergifosse,  T. A. Wesolowski,  
 A. White,  J. Witte,  A. Yamada,  Jun Yang,  K. Yao,  S. Yeganeh,  
 S. R. Yost,  Zhi-Qiang You,  A. Zech,  Igor Ying Zhang,  Xing Zhang,  
 Yan Zhao,  Ying Zhu,  B. R. Brooks,  G. K. L. Chan,  C. J. Cramer,  
 M. S. Gordon,  W. J. Hehre,  A. Klamt,  M. W. Schmidt,  C. D. Sherrill,  
 D. G. Truhlar,  A. Aspuru-Guzik,  R. Baer,  A. T. Bell,  N. A. Besley,  
 Jeng-Da Chai,  A. E. DePrince, III,  R. A. DiStasio Jr.,  A. Dreuw,  
 B. D. Dunietz,  T. R. Furlani,  Chao-Ping Hsu,  Yousung Jung,  Jing Kong,  
 D. S. Lambrecht,  WanZhen Liang,  C. Ochsenfeld,  V. A. Rassolov,  
 L. V. Slipchenko,  J. E. Subotnik,  T. Van Voorhis,  J. M. Herbert,  
 A. I. Krylov,  P. M. W. Gill,  M. Head-Gordon

 Contributors to earlier versions of Q-Chem not listed above: 
 R. D. Adamson,  B. Austin,  J. Baker,  G. J. O. Beran,  K. Brandhorst,  
 S. T. Brown,  E. F. C. Byrd,  A. K. Chakraborty,  C.-L. Cheng,  
 Siu Hung Chien,  D. M. Chipman,  D. L. Crittenden,  H. Dachsel,  
 R. J. Doerksen,  A. D. Dutoi,  L. Fusti-Molnar,  W. A. Goddard III,  
 A. Golubeva-Zadorozhnaya,  S. R. Gwaltney,  G. Hawkins,  A. Heyden,  
 S. Hirata,  G. Kedziora,  F. J. Keil,  C. Kelley,  Jihan Kim,  R. A. King,  
 R. Z. Khaliullin,  P. P. Korambath,  W. Kurlancheek,  A. M. Lee,  M. S. Lee,  
 S. V. Levchenko,  Ching Yeh Lin,  D. Liotard,  R. C. Lochan,  I. Lotan,  
 P. E. Maslen,  N. Nair,  D. P. O'Neill,  D. Neuhauser,  E. Neuscamman,  
 C. M. Oana,  R. Olson,  B. Peters,  R. Peverati,  P. A. Pieniazek,  
 Y. M. Rhee,  J. Ritchie,  M. A. Rohrdanz,  E. Rosta,  N. J. Russ,  
 H. F. Schaefer III,  N. E. Schultz,  N. Shenvi,  A. C. Simmonett,  A. Sodt,  
 D. Stuck,  K. S. Thanthiriwatte,  V. Vanovschi,  Tao Wang,  A. Warshel,  
 C. F. Williams,  Q. Wu,  X. Xu,  W. Zhang

 Please cite Q-Chem as follows:
 Y. Shao et al., Mol. Phys. 113, 184-215 (2015)
 DOI: 10.1080/00268976.2014.952696

 Q-Chem 5.1.2 for Intel X86 EM64T Linux

 Parts of Q-Chem use Armadillo 8.300.2 (Tropical Shenanigans).
 http://arma.sourceforge.net/

 Q-Chem begins on Wed Jun 12 19:27:12 2019  

Host: 
0

     Scratch files written to /scratch/xuedong/qchem3038//
 Dec218 |scratch|qcdevops|jenkins|workspace|build_RNUM 6581   
Processing $rem in /home/qwang/software/qchem5.1.2/config/preferences.
 MEM_TOTAL  4000 
Core orbitals will be frozen
Input Ideriv = 1
Curr. Ideriv = -1
Max.  Ideriv = 1

Checking the input file for inconsistencies... 	...done.

--------------------------------------------------------------
User input:
--------------------------------------------------------------
$molecule
0 1
--
0 1
Si    -2.355587420     0.000852678    -0.001125865
H    -2.728992107     0.287798069    -1.400983250
H    -2.856535997     1.078823011     0.875456972
H    -0.884338632    -0.075218668     0.107530826
H    -2.944965592    -1.288253407     0.413844090
--
0 1
Si     4.026706391    -0.001477261     0.001986439
H     3.469389958     0.251647744    -1.342590140
H     3.549478294     1.038215603     0.936800816
H     5.502347353     0.034609588    -0.062583815
H     3.587028886    -1.329956411     0.475653337
$end

$rem
BASIS = aug-cc-pVTZ
JOB_TYPE  =  BSSE
METHOD  =  MP2
!SCF_CONVERGENCE  =  7
SCF_MAX_CYCLES  =  200
$end

--------------------------------------------------------------
 ----------------------------------------------------------------
             Standard Nuclear Orientation (Angstroms)
    I     Atom           X                Y                Z
 ----------------------------------------------------------------
    1      Si     -3.1913957214     0.0000203182    -0.0000324766
    2      H      -3.5655675793     0.2397056432    -1.4085479298
    3      H      -3.6923126321     1.1066259901     0.8401300798
    4      H      -1.7200684393    -0.0718609355     0.1103995686
    5      H      -3.7801166236    -1.2746366085     0.4582453977
    6      Si      3.1908992730    -0.0000290013     0.0000504283
    7      H       2.6328540264     0.2076472213    -1.3519910432
    8      H       2.7137441550     1.0702827593     0.8996845517
    9      H       4.6664964292     0.0343737657    -0.0664124147
   10      H       2.7519209403    -1.3120162721     0.5182404663
 ----------------------------------------------------------------
 Molecular Point Group                 C1    NOp =  1
 Largest Abelian Subgroup              C1    NOp =  1
 Nuclear Repulsion Energy =    69.6266402333 hartrees
 There are       18 alpha and       18 beta electrons
 Requested basis set is aug-cc-pVTZ
 There are 104 shells and 284 basis functions

 Total QAlloc Memory Limit   4000 MB
 Mega-Array Size       188 MB
 MEM_STATIC part       192 MB

                       Distance Matrix (Angstroms)
             Si(  1)   H (  2)   H (  3)   H (  4)   H (  5)   Si(  6)
   H (  2)  1.476946
   H (  3)  1.476945  2.413331
   H (  4)  1.477216  2.410424  2.410619
   H (  5)  1.476943  2.413334  2.413288  2.410698
   Si(  6)  6.382295  6.905901  7.022039  4.912733  7.101382
   H (  7)  5.982707  6.198763  6.754353  4.600505  6.826442  1.477349
   H (  8)  6.068412  6.741480  6.406437  4.646091  6.918363  1.477358
   H (  9)  7.858248  8.343283  8.475921  6.389895  8.563530  1.477494
   H ( 10)  6.108442  6.784616  6.890689  4.658649  6.532420  1.477340
             H (  7)   H (  8)   H (  9)
   H (  8)  2.412618
   H (  9)  2.412144  2.412404
   H ( 10)  2.412741  2.412945  2.412506
 
 A cutoff of  1.0D-08 yielded   4227 shell pairs
 There are     29867 function pairs (     37159 Cartesian)
 
 -------------------------------------------------------
 OpenMP Integral Computing Module                       
 Release: version 1.0, May 2013, Q-Chem Inc. Pittsburgh 
 -------------------------------------------------------
 Integral Job Info:
 Integral job number is                      11
 Integral operator is                         1
 short-range coefficients                     0
 long-range coefficients              100000000
 Omega coefficients                           0
 if combine SR and LR in K                    0
 Integral screening is                        0
 Integral computing path is                   2
 max size of driver memory is            800000
 size of driver memory is                776718
 size of scratch memory is             29531563
 max col of scratch BK array              10000
 max len of scratch array in speh3          662
 max len of scratch index in speh4           32
 max int batch size is                      520
 min int batch size is                       52
 fixed nKL is                                31
 max L of basis functions is                  3
 order of int derivative is                   0
 number of shells is                        104
 number of basis is                         318
 number of cartesian basis is               318
 number of contracted shell pairs          4227
 number of primitive shell pairs          14400
 maxK2 (contraction) of shell pair          169
 max number of K2 of shell pair               1
 max number of CS2 of shell pair            836
 max number of PS2 of shell pair           2028
 mem total for path MDJ                  605820
 -------------------------------------------------------
 Smallest overlap matrix eigenvalue = 1.33E-05

 Q-Chem warning in module stvman/mkSTV.C, line 306:

 Overlap eigenvalue is smaller than square root of threshold
 Use THRESH >= 12 to get rid of this warning


 Scale SEOQF with 1.000000e-01/1.000000e-01/1.000000e-01

 Standard Electronic Orientation quadrupole field applied
 Nucleus-field energy     =     0.0000000131 hartrees
 Guess MOs from converged MOs on fragments

-----------------------------------------------------------------
 SCF on fragment 1 out of 2
/home/qwang/software/qchem5.1.2/exe/qcprog.exe /scratch/xuedong/qchem3038/Frg1.input /scratch/xuedong/qchem3038/Frg1/ > /dev/null 
 SCF on fragment 2 out of 2
/home/qwang/software/qchem5.1.2/exe/qcprog.exe /scratch/xuedong/qchem3038/Frg2.input /scratch/xuedong/qchem3038/Frg2/ > /dev/null 
-----------------------------------------------------------------
 Done with SCF on isolated fragments
-----------------------------------------------------------------

 User-specified occupied guess orbitals will be used
 A restricted Hartree-Fock SCF calculation will be
 performed using Pulay DIIS extrapolation
 SCF converges when DIIS error is below 1.0E-05
 using 6 threads for integral computing
 -------------------------------------------------------
 OpenMP Integral computing Module                
 Release: version 1.0, May 2013, Q-Chem Inc. Pittsburgh 
 -------------------------------------------------------
 ---------------------------------------
  Cycle       Energy         DIIS Error
 ---------------------------------------
    1    -582.5217300833      4.17E-05
    2    -582.5217644599      7.25E-06 Convergence criterion met
 ---------------------------------------
 SCF time:  CPU 26.52 s  wall 4.46 s

-----------------------------------------------------------------
 SCF CP correction for fragment 1 out of 2
/home/qwang/software/qchem5.1.2/exe/qcprog.exe /scratch/xuedong/qchem3038/Frg1.input /scratch/xuedong/qchem3038/Frg1BSSE/ > /dev/null 
 SCF CP correction for fragment 2 out of 2
/home/qwang/software/qchem5.1.2/exe/qcprog.exe /scratch/xuedong/qchem3038/Frg2.input /scratch/xuedong/qchem3038/Frg2BSSE/ > /dev/null 
-----------------------------------------------------------------
 Done with counterpoise correction on fragments
-----------------------------------------------------------------

 SCF   energy in the final basis set = -582.52176446
 Total energy in the final basis set = -582.52176446
 
 Components of the MP2 correlation energy:
        aaaa  correlation energy =        -0.0147679703 au
        abab  correlation energy =        -0.2622268357 au
        bbbb  correlation energy =        -0.0147679703 au
        non-Brillouin singles    =        -0.0000000000 au

 Total  MP2   correlation energy =                    -0.29176278 au
        MP2         total energy =                  -582.81352724 au
 
 --------------------------------------------------------------
 
                    Orbital Energies (a.u.)
 --------------------------------------------------------------
 
 Alpha MOs
 -- Occupied --
-68.775 -68.774  -6.124  -6.124  -4.230  -4.230  -4.230  -4.230
 -4.230  -4.230  -0.732  -0.731  -0.487  -0.487  -0.487  -0.486
 -0.486  -0.486
 -- Virtual --
  0.028   0.039   0.051   0.051   0.054   0.061   0.062   0.069
  0.071   0.073   0.074   0.076   0.086   0.128   0.130   0.134
  0.147   0.154   0.155   0.156   0.162   0.162   0.164   0.165
  0.166   0.182   0.229   0.244   0.245   0.250   0.250   0.252
  0.262   0.267   0.268   0.276   0.279   0.281   0.296   0.299
  0.306   0.311   0.312   0.318   0.319   0.320   0.322   0.346
  0.363   0.365   0.409   0.410   0.412   0.426   0.433   0.435
  0.439   0.456   0.501   0.502   0.508   0.510   0.512   0.523
  0.544   0.568   0.590   0.591   0.593   0.593   0.597   0.602
  0.603   0.615   0.615   0.631   0.632   0.635   0.641   0.642
  0.652   0.653   0.661   0.662   0.668   0.670   0.687   0.739
  0.783   0.860   0.940   0.940   0.947   0.948   0.948   0.949
  0.952   0.954   0.956   0.964   0.967   0.971   0.974   0.975
  0.993   1.009   1.012   1.024   1.057   1.057   1.066   1.067
  1.075   1.092   1.113   1.114   1.120   1.121   1.193   1.193
  1.196   1.197   1.200   1.208   1.245   1.247   1.251   1.252
  1.257   1.259   1.273   1.274   1.279   1.281   1.284   1.333
  1.342   1.343   1.346   1.350   1.354   1.355   1.367   1.371
  1.373   1.376   1.379   1.392   1.392   1.408   1.409   1.434
  1.477   1.481   1.482   1.484   1.485   1.488   1.505   1.549
  1.631   1.653   1.901   1.903   1.903   1.904   1.954   1.961
  1.980   1.980   1.982   1.982   1.992   1.993   1.993   1.995
  2.004   2.006   2.013   2.028   2.229   2.229   2.232   2.233
  2.234   2.266   3.061   3.062   3.064   3.065   3.086   3.110
  3.271   3.311   3.549   3.550   3.558   3.559   3.565   3.586
  3.936   3.937   3.942   3.942   3.977   3.978   3.979   3.979
  3.980   3.981   4.057   4.057   4.057   4.059   4.059   4.072
  4.150   4.150   4.151   4.153   4.154   4.160   4.259   4.259
  4.260   4.260   4.268   4.268   4.270   4.271   4.281   4.281
  4.291   4.300   4.423   4.423   4.423   4.425   4.431   4.432
  4.554   4.555   4.556   4.556   4.557   4.576   4.745   4.745
  4.746   4.746   4.826   4.826   4.829   4.830   4.839   4.853
  4.945   4.955   5.089   5.090   5.092   5.092   5.101   5.129
  8.705   8.767
 --------------------------------------------------------------
 
          Ground-State Mulliken Net Atomic Charges

     Atom                 Charge (a.u.)
  ----------------------------------------
      1 Si                    1.651018
      2 H                    -0.417320
      3 H                    -0.417780
      4 H                    -0.391751
      5 H                    -0.418176
      6 Si                    1.613098
      7 H                    -0.395615
      8 H                    -0.396174
      9 H                    -0.431078
     10 H                    -0.396224
  ----------------------------------------
  Sum of atomic charges =    -0.000001

 -----------------------------------------------------------------
                    Cartesian Multipole Moments
 -----------------------------------------------------------------
    Charge (ESU x 10^10)
                -0.0000
    Dipole Moment (Debye)
         X      -0.0262      Y      -0.0003      Z       0.0004
       Tot       0.0263
    Quadrupole Moments (Debye-Ang)
        XX     -33.4812     XY      -0.0039     YY     -33.5281
        XZ       0.0064     YZ       0.0000     ZZ     -33.5280
    Octopole Moments (Debye-Ang^2)
       XXX      -4.0134    XXY       0.0849    XYY       1.6305
       YYY       0.9886    XXZ      -0.0791    XYZ       0.0085
       YYZ      -2.0399    XZZ       1.5228    YZZ      -1.0798
       ZZZ       2.1286
    Hexadecapole Moments (Debye-Ang^3)
      XXXX   -2133.6169   XXXY      -2.3429   XXYY    -370.9527
      XYYY       0.6883   YYYY     -85.4847   XXXZ       3.7899
      XXYZ      -0.0024   XYYZ      -0.5130   YYYZ       0.0093
      XXZZ    -368.8616   XYZZ       0.0698   YYZZ     -28.4949
      XZZZ      -0.7151   YZZZ      -0.0053   ZZZZ     -85.4615
 -----------------------------------------------------------------

 ---------------------------------------------------------------------
 *                     Fragment's binding energy                     *
 ---------------------------------------------------------------------
    Fragment           E(TOTAL)         E(CP-CORR)           DE(BSSE)
 ---------------------------------------------------------------------
           1    -291.4066303238    -291.4066826061       0.0000522823
           2    -291.4066321128    -291.4066707094       0.0000385966
     Complex    -582.8135272360
 ---------------------------------------------------------------------
  DE, kJ/mol      -0.6952393212      -0.4566338720
 ---------------------------------------------------------------------

Archival summary:
1\1\mm2.localdomain\SP\MP2\BasisUnspecified\i28\xuedong\WedJun1219:28:552019WedJun1219:28:552019\0\\#,MP2,BasisUnspecified,\\0,1\Si\H,1,1.47734\H,1,1.47735,2,109.488\H,1,1.47736,2,109.501,3,120.038,0\H,1,1.47749,2,109.464,3,-119.967,0\H,3,4.6005,1,93.3222,2,60.3248,0\Si,6,1.47722,3,156.304,1,173.245,0\H,7,1.47694,6,109.38,3,126.288,0\H,7,1.47695,6,109.374,3,-113.708,0\H,7,1.47695,6,109.361,3,6.28788,0\\HF=-582.521764\MP2=-582.813527\\@

 Total job time:  102.54s(wall), 189.53s(cpu) 
 Wed Jun 12 19:28:55 2019

        *************************************************************
        *                                                           *
        *  Thank you very much for using Q-Chem.  Have a nice day.  *
        *                                                           *
        *************************************************************


