
Running Job 1 of 1 ../qm_inp/SiH4_water.100.qcinp
qchem ../qm_inp/SiH4_water.100.qcinp_10673.0 /scratch/xuedong/qchem10673/ 1
/home/qwang/software/qchem5.1.2/exe/qcprog.exe_s ../qm_inp/SiH4_water.100.qcinp_10673.0 /scratch/xuedong/qchem10673/
Check license passed

                  Welcome to Q-Chem
     A Quantum Leap Into The Future Of Chemistry


 Q-Chem 5.1, Q-Chem, Inc., Pleasanton, CA (2018)

 Yihan Shao,  Zhengting Gan,  E. Epifanovsky,  A. T. B. Gilbert,  M. Wormit,  
 J. Kussmann,  A. W. Lange,  A. Behn,  Jia Deng,  Xintian Feng,  D. Ghosh,  
 M. Goldey,  P. R. Horn,  L. D. Jacobson,  I. Kaliman,  T. Kus,  A. Landau,  
 Jie Liu,  E. I. Proynov,  R. M. Richard,  R. P. Steele,  E. J. Sundstrom,  
 H. L. Woodcock III,  P. M. Zimmerman,  D. Zuev,  B. Albrecht,  E. Alguire,  
 S. A. Baeppler,  D. Barton,  Z. Benda,  Y. A. Bernard,  E. J. Berquist,  
 K. B. Bravaya,  H. Burton,  D. Casanova,  Chun-Min Chang,  Yunqing Chen,  
 A. Chien,  K. D. Closser,  M. P. Coons,  S. Coriani,  S. Dasgupta,  
 A. L. Dempwolff,  M. Diedenhofen,  Hainam Do,  R. G. Edgar,  Po-Tung Fang,  
 S. Faraji,  S. Fatehi,  Qingguo Feng,  K. D. Fenk,  J. Fosso-Tande,  
 J. Gayvert,  Qinghui Ge,  A. Ghysels,  G. Gidofalvi,  J. Gomes,  
 J. Gonthier,  A. Gunina,  D. Hait,  M. W. D. Hanson-Heine,  
 P. H. P. Harbach,  A. W. Hauser,  J. E. Herr,  E. G. Hohenstein,  
 Z. C. Holden,  Kerwin Hui,  B. C. Huynh,  T.-C. Jagau,  Hyunjun Ji,  
 B. Kaduk,  K. Khistyaev,  Jaehoon Kim,  P. Klunzinger,  K. Koh,  
 D. Kosenkov,  L. Koulias,  T. Kowalczyk,  C. M. Krauter,  A. Kunitsa,  
 Ka Un Lao,  A. Laurent,  K. V. Lawler,  Joonho Lee,  D. Lefrancois,  
 S. Lehtola,  D. S. Levine,  Yi-Pei Li,  You-Sheng Lin,  Fenglai Liu,  
 E. Livshits,  A. Luenser,  P. Manohar,  E. Mansoor,  S. F. Manzer,  
 Shan-Ping Mao,  Yuezhi Mao,  N. Mardirossian,  A. V. Marenich,  
 T. Markovich,  L. A. Martinez-Martinez,  S. A. Maurer,  N. J. Mayhall,  
 S. C. McKenzie,  J.-M. Mewes,  A. F. Morrison,  J. W. Mullinax,  K. Nanda,  
 T. S. Nguyen-Beck,  R. Olivares-Amaya,  J. A. Parkhill,  T. M. Perrine,  
 F. Plasser,  P. Pokhilko,  S. Prager,  A. Prociuk,  E. Ramos,  D. R. Rehn,  
 F. Rob,  M. Schneider,  N. Sergueev,  S. M. Sharada,  S. Sharma,  
 D. W. Small,  T. Stauch,  T. Stein,  Yu-Chuan Su,  A. J. W. Thom,  
 A. Tkatchenko,  T. Tsuchimochi,  N. M. Tubman,  L. Vogt,  M. L. Vidal,  
 O. Vydrov,  M. A. Watson,  J. Wenzel,  M. de Wergifosse,  T. A. Wesolowski,  
 A. White,  J. Witte,  A. Yamada,  Jun Yang,  K. Yao,  S. Yeganeh,  
 S. R. Yost,  Zhi-Qiang You,  A. Zech,  Igor Ying Zhang,  Xing Zhang,  
 Yan Zhao,  Ying Zhu,  B. R. Brooks,  G. K. L. Chan,  C. J. Cramer,  
 M. S. Gordon,  W. J. Hehre,  A. Klamt,  M. W. Schmidt,  C. D. Sherrill,  
 D. G. Truhlar,  A. Aspuru-Guzik,  R. Baer,  A. T. Bell,  N. A. Besley,  
 Jeng-Da Chai,  A. E. DePrince, III,  R. A. DiStasio Jr.,  A. Dreuw,  
 B. D. Dunietz,  T. R. Furlani,  Chao-Ping Hsu,  Yousung Jung,  Jing Kong,  
 D. S. Lambrecht,  WanZhen Liang,  C. Ochsenfeld,  V. A. Rassolov,  
 L. V. Slipchenko,  J. E. Subotnik,  T. Van Voorhis,  J. M. Herbert,  
 A. I. Krylov,  P. M. W. Gill,  M. Head-Gordon

 Contributors to earlier versions of Q-Chem not listed above: 
 R. D. Adamson,  B. Austin,  J. Baker,  G. J. O. Beran,  K. Brandhorst,  
 S. T. Brown,  E. F. C. Byrd,  A. K. Chakraborty,  C.-L. Cheng,  
 Siu Hung Chien,  D. M. Chipman,  D. L. Crittenden,  H. Dachsel,  
 R. J. Doerksen,  A. D. Dutoi,  L. Fusti-Molnar,  W. A. Goddard III,  
 A. Golubeva-Zadorozhnaya,  S. R. Gwaltney,  G. Hawkins,  A. Heyden,  
 S. Hirata,  G. Kedziora,  F. J. Keil,  C. Kelley,  Jihan Kim,  R. A. King,  
 R. Z. Khaliullin,  P. P. Korambath,  W. Kurlancheek,  A. M. Lee,  M. S. Lee,  
 S. V. Levchenko,  Ching Yeh Lin,  D. Liotard,  R. C. Lochan,  I. Lotan,  
 P. E. Maslen,  N. Nair,  D. P. O'Neill,  D. Neuhauser,  E. Neuscamman,  
 C. M. Oana,  R. Olson,  B. Peters,  R. Peverati,  P. A. Pieniazek,  
 Y. M. Rhee,  J. Ritchie,  M. A. Rohrdanz,  E. Rosta,  N. J. Russ,  
 H. F. Schaefer III,  N. E. Schultz,  N. Shenvi,  A. C. Simmonett,  A. Sodt,  
 D. Stuck,  K. S. Thanthiriwatte,  V. Vanovschi,  Tao Wang,  A. Warshel,  
 C. F. Williams,  Q. Wu,  X. Xu,  W. Zhang

 Please cite Q-Chem as follows:
 Y. Shao et al., Mol. Phys. 113, 184-215 (2015)
 DOI: 10.1080/00268976.2014.952696

 Q-Chem 5.1.2 for Intel X86 EM64T Linux

 Parts of Q-Chem use Armadillo 8.300.2 (Tropical Shenanigans).
 http://arma.sourceforge.net/

 Q-Chem begins on Wed Jul 10 10:58:17 2019  

Host: 
0

     Scratch files written to /scratch/xuedong/qchem10673//
 Dec218 |scratch|qcdevops|jenkins|workspace|build_RNUM 6581   
Processing $rem in /home/qwang/software/qchem5.1.2/config/preferences.
 MEM_TOTAL  4000 
Core orbitals will be frozen
Input Ideriv = 1
Curr. Ideriv = -1
Max.  Ideriv = 1

Checking the input file for inconsistencies... 	...done.

--------------------------------------------------------------
User input:
--------------------------------------------------------------
$molecule
0 1
--
0 1
O     1.993924319     0.222020423    -0.365391964
H     2.143343877     1.158326366    -0.214403173
H     2.400388308    -0.198991600     0.395963117
--
0 1
Si    -1.108790987    -0.166596795     0.115740777
H    -2.554436181    -0.391847767     0.345117516
H    -0.770573610     1.183718583     0.610627208
H    -0.835842807    -0.271240984    -1.328115227
H    -0.355482973    -1.186069849     0.871619838
$end

$rem
BASIS = aug-cc-pVTZ
JOB_TYPE  =  BSSE
METHOD  =  MP2
SCF_CONVERGENCE  =  7
SCF_MAX_CYCLES  =  200
$end

--------------------------------------------------------------
 ----------------------------------------------------------------
             Standard Nuclear Orientation (Angstroms)
    I     Atom           X                Y                Z
 ----------------------------------------------------------------
    1      O       2.0172891449     0.0026373561    -0.1137735630
    2      H       2.2756440605     0.7445079679     0.4381986928
    3      H       2.2682255204    -0.7653875466     0.4051622148
    4      Si     -1.1443437541     0.0000002656     0.0020918099
    5      H      -2.6241649643    -0.0426964788     0.0414350384
    6      H      -0.6840338530     0.9309792272     1.0528287711
    7      H      -0.7187413516     0.4701360094    -1.3275721525
    8      H      -0.6344300134    -1.3586417462     0.2708506005
 ----------------------------------------------------------------
 Molecular Point Group                 C1    NOp =  1
 Largest Abelian Subgroup              C1    NOp =  1
 Nuclear Repulsion Energy =    59.7408111493 hartrees
 There are       14 alpha and       14 beta electrons
 Requested basis set is aug-cc-pVTZ
 There are 84 shells and 234 basis functions

 Total QAlloc Memory Limit   4000 MB
 Mega-Array Size       188 MB
 MEM_STATIC part       192 MB

                       Distance Matrix (Angstroms)
             O (  1)   H (  2)   H (  3)   Si(  4)   H (  5)   H (  6)
   H (  2)  0.960100
   H (  3)  0.960274  1.510275
   Si(  4)  3.163756  3.527151  3.520499
   H (  5)  4.644270  4.978478  4.958837  1.480960
   H (  6)  3.085438  3.028570  3.465973  1.477381  2.394801
   H (  7)  3.029476  3.487058  3.667541  1.473150  2.401628  2.424848
   H (  8)  3.005434  3.594409  2.965704  1.475856  2.396537  2.419982
             H (  7)
   H (  8)  2.430328
 
 A cutoff of  1.0D-10 yielded   3448 shell pairs
 There are     26824 function pairs (     34254 Cartesian)
 
 -------------------------------------------------------
 OpenMP Integral Computing Module                       
 Release: version 1.0, May 2013, Q-Chem Inc. Pittsburgh 
 -------------------------------------------------------
 Integral Job Info:
 Integral job number is                      11
 Integral operator is                         1
 short-range coefficients                     0
 long-range coefficients              100000000
 Omega coefficients                           0
 if combine SR and LR in K                    0
 Integral screening is                        0
 Integral computing path is                   2
 max size of driver memory is            800000
 size of driver memory is                776718
 size of scratch memory is             29531563
 max col of scratch BK array              10000
 max len of scratch array in speh3          662
 max len of scratch index in speh4           32
 max int batch size is                      520
 min int batch size is                       52
 fixed nKL is                                31
 max L of basis functions is                  3
 order of int derivative is                   0
 number of shells is                         84
 number of basis is                         264
 number of cartesian basis is               264
 number of contracted shell pairs          3448
 number of primitive shell pairs          10544
 maxK2 (contraction) of shell pair          169
 max number of K2 of shell pair               1
 max number of CS2 of shell pair            598
 max number of PS2 of shell pair           1014
 mem total for path MDJ                  591676
 -------------------------------------------------------
 Smallest overlap matrix eigenvalue = 1.38E-05

 Scale SEOQF with 1.000000e-01/1.000000e-01/1.000000e-01

 Standard Electronic Orientation quadrupole field applied
 Nucleus-field energy     =     0.0000000024 hartrees
 Guess MOs from converged MOs on fragments

-----------------------------------------------------------------
 SCF on fragment 1 out of 2
/home/qwang/software/qchem5.1.2/exe/qcprog.exe /scratch/xuedong/qchem10673/Frg1.input /scratch/xuedong/qchem10673/Frg1/ > /dev/null 
 SCF on fragment 2 out of 2
/home/qwang/software/qchem5.1.2/exe/qcprog.exe /scratch/xuedong/qchem10673/Frg2.input /scratch/xuedong/qchem10673/Frg2/ > /dev/null 
-----------------------------------------------------------------
 Done with SCF on isolated fragments
-----------------------------------------------------------------

 User-specified occupied guess orbitals will be used
 A restricted Hartree-Fock SCF calculation will be
 performed using Pulay DIIS extrapolation
 SCF converges when DIIS error is below 1.0E-07
 using 6 threads for integral computing
 -------------------------------------------------------
 OpenMP Integral computing Module                
 Release: version 1.0, May 2013, Q-Chem Inc. Pittsburgh 
 -------------------------------------------------------
 ---------------------------------------
  Cycle       Energy         DIIS Error
 ---------------------------------------
    1    -367.3199453642      3.12E-04
    2    -367.3212526352      7.34E-05
    3    -367.3213347878      3.07E-05
    4    -367.3213422709      1.00E-05
    5    -367.3213434182      1.89E-06
    6    -367.3213434801      4.15E-07
    7    -367.3213434829      1.14E-07
    8    -367.3213434832      2.72E-08 Convergence criterion met
 ---------------------------------------
 SCF time:  CPU 91.93 s  wall 15.37 s

-----------------------------------------------------------------
 SCF CP correction for fragment 1 out of 2
/home/qwang/software/qchem5.1.2/exe/qcprog.exe /scratch/xuedong/qchem10673/Frg1.input /scratch/xuedong/qchem10673/Frg1BSSE/ > /dev/null 
 SCF CP correction for fragment 2 out of 2
/home/qwang/software/qchem5.1.2/exe/qcprog.exe /scratch/xuedong/qchem10673/Frg2.input /scratch/xuedong/qchem10673/Frg2BSSE/ > /dev/null 
-----------------------------------------------------------------
 Done with counterpoise correction on fragments
-----------------------------------------------------------------

 SCF   energy in the final basis set = -367.32134348
 Total energy in the final basis set = -367.32134348
 
 Components of the MP2 correlation energy:
        aaaa  correlation energy =        -0.0405198857 au
        abab  correlation energy =        -0.3358798028 au
        bbbb  correlation energy =        -0.0405198857 au
        non-Brillouin singles    =        -0.0000000000 au

 Total  MP2   correlation energy =                    -0.41691957 au
        MP2         total energy =                  -367.73826306 au
 
 --------------------------------------------------------------
 
                    Orbital Energies (a.u.)
 --------------------------------------------------------------
 
 Alpha MOs
 -- Occupied --
-68.763 -20.575  -6.112  -4.218  -4.218  -4.218  -1.361  -0.723
 -0.720  -0.595  -0.524  -0.477  -0.476  -0.466
 -- Virtual --
  0.025   0.043   0.047   0.060   0.067   0.069   0.073   0.077
  0.100   0.130   0.143   0.156   0.162   0.166   0.167   0.181
  0.186   0.204   0.231   0.238   0.245   0.255   0.257   0.263
  0.270   0.294   0.302   0.311   0.312   0.319   0.335   0.339
  0.376   0.382   0.410   0.412   0.420   0.429   0.435   0.439
  0.444   0.461   0.468   0.518   0.533   0.537   0.574   0.581
  0.604   0.617   0.623   0.630   0.641   0.647   0.662   0.663
  0.668   0.672   0.677   0.691   0.794   0.796   0.827   0.847
  0.868   0.876   0.883   0.942   0.949   0.956   0.967   0.971
  0.990   0.999   1.009   1.016   1.023   1.034   1.057   1.064
  1.068   1.099   1.105   1.123   1.138   1.152   1.164   1.191
  1.205   1.210   1.214   1.232   1.241   1.255   1.274   1.280
  1.302   1.309   1.323   1.334   1.347   1.356   1.363   1.377
  1.395   1.405   1.411   1.462   1.469   1.486   1.525   1.529
  1.579   1.590   1.650   1.660   1.739   1.793   1.838   1.916
  1.917   1.957   1.993   2.006   2.015   2.019   2.027   2.041
  2.062   2.072   2.177   2.242   2.246   2.249   2.337   2.389
  2.457   2.491   2.509   2.532   2.584   2.716   2.778   2.809
  2.840   2.917   3.094   3.101   3.175   3.357   3.605   3.640
  3.649   3.781   3.796   3.976   3.978   3.993   4.017   4.056
  4.066   4.081   4.088   4.107   4.160   4.169   4.203   4.226
  4.256   4.275   4.279   4.287   4.297   4.307   4.323   4.350
  4.403   4.423   4.441   4.457   4.477   4.501   4.530   4.558
  4.587   4.589   4.658   4.770   4.782   4.788   4.861   4.879
  4.898   4.951   4.980   5.121   5.130   5.145   5.160   5.192
  5.266   5.355   5.569   5.734   6.247   6.544   6.731   6.924
  7.175   7.300   7.327   7.349   7.382   7.386   7.581   7.898
  7.956   8.833   8.857  15.939
 --------------------------------------------------------------
 
          Ground-State Mulliken Net Atomic Charges

     Atom                 Charge (a.u.)
  ----------------------------------------
      1 O                    -0.446769
      2 H                     0.221398
      3 H                     0.220596
      4 Si                    1.620046
      5 H                    -0.592647
      6 H                    -0.348913
      7 H                    -0.327577
      8 H                    -0.346133
  ----------------------------------------
  Sum of atomic charges =    -0.000000

 -----------------------------------------------------------------
                    Cartesian Multipole Moments
 -----------------------------------------------------------------
    Charge (ESU x 10^10)
                -0.0000
    Dipole Moment (Debye)
         X       1.3446      Y      -0.0357      Z       1.6294
       Tot       2.1129
    Quadrupole Moments (Debye-Ang)
        XX     -21.1770     XY      -0.0985     YY     -21.2185
        XZ       4.3601     YZ       0.0286     ZZ     -23.3473
    Octopole Moments (Debye-Ang^2)
       XXX      28.8225    XXY      -0.0664    XYY      10.6224
       YYY       0.9254    XXZ       9.9078    XYZ       0.0813
       YYZ       0.3826    XZZ       5.7670    YZZ      -1.0390
       ZZZ       1.1507
    Hexadecapole Moments (Debye-Ang^3)
      XXXX    -349.2946   XXXY      -0.7813   XXYY     -52.9497
      XYYY      -1.3947   YYYY     -49.8168   XXXZ      25.4699
      XXYZ       0.3010   XYYZ       3.9053   YYYZ       0.0268
      XXZZ     -64.1739   XYZZ       1.3713   YYZZ     -16.5552
      XZZZ       1.8062   YZZZ      -0.0909   ZZZZ     -50.5799
 -----------------------------------------------------------------

 ---------------------------------------------------------------------
 *                     Fragment's binding energy                     *
 ---------------------------------------------------------------------
    Fragment           E(TOTAL)         E(CP-CORR)           DE(BSSE)
 ---------------------------------------------------------------------
           1     -76.3289848459     -76.3293068636       0.0003220177
           2    -291.4064822450    -291.4067216992       0.0002394542
     Complex    -367.7382630575
 ---------------------------------------------------------------------
  DE, kJ/mol      -7.3408974424      -5.8667353595
 ---------------------------------------------------------------------

Archival summary:
1\1\gm4.localdomain\SP\MP2\BasisUnspecified\i116\xuedong\WedJul1011:00:072019WedJul1011:00:072019\0\\#,MP2,BasisUnspecified,\\0,1\Si\H,1,1.47315\H,1,1.47586,2,110.998\H,1,1.47738,2,110.538,3,122.416,0\H,1,1.48096,2,108.776,3,-119.049,0\H,3,2.9657,1,99.3378,2,66.7349,0\O,6,0.960274,3,83.0937,1,-22.4327,0\H,7,0.9601,6,103.71,3,119.333,0\\HF=-367.321343\MP2=-367.738263\\@

 Total job time:  110.16s(wall), 239.14s(cpu) 
 Wed Jul 10 11:00:07 2019

        *************************************************************
        *                                                           *
        *  Thank you very much for using Q-Chem.  Have a nice day.  *
        *                                                           *
        *************************************************************


