
Running Job 1 of 1 ../qm_inp/SiH4_water.110.qcinp
qchem ../qm_inp/SiH4_water.110.qcinp_10830.0 /scratch/xuedong/qchem10830/ 1
/home/qwang/software/qchem5.1.2/exe/qcprog.exe_s ../qm_inp/SiH4_water.110.qcinp_10830.0 /scratch/xuedong/qchem10830/
Check license passed

                  Welcome to Q-Chem
     A Quantum Leap Into The Future Of Chemistry


 Q-Chem 5.1, Q-Chem, Inc., Pleasanton, CA (2018)

 Yihan Shao,  Zhengting Gan,  E. Epifanovsky,  A. T. B. Gilbert,  M. Wormit,  
 J. Kussmann,  A. W. Lange,  A. Behn,  Jia Deng,  Xintian Feng,  D. Ghosh,  
 M. Goldey,  P. R. Horn,  L. D. Jacobson,  I. Kaliman,  T. Kus,  A. Landau,  
 Jie Liu,  E. I. Proynov,  R. M. Richard,  R. P. Steele,  E. J. Sundstrom,  
 H. L. Woodcock III,  P. M. Zimmerman,  D. Zuev,  B. Albrecht,  E. Alguire,  
 S. A. Baeppler,  D. Barton,  Z. Benda,  Y. A. Bernard,  E. J. Berquist,  
 K. B. Bravaya,  H. Burton,  D. Casanova,  Chun-Min Chang,  Yunqing Chen,  
 A. Chien,  K. D. Closser,  M. P. Coons,  S. Coriani,  S. Dasgupta,  
 A. L. Dempwolff,  M. Diedenhofen,  Hainam Do,  R. G. Edgar,  Po-Tung Fang,  
 S. Faraji,  S. Fatehi,  Qingguo Feng,  K. D. Fenk,  J. Fosso-Tande,  
 J. Gayvert,  Qinghui Ge,  A. Ghysels,  G. Gidofalvi,  J. Gomes,  
 J. Gonthier,  A. Gunina,  D. Hait,  M. W. D. Hanson-Heine,  
 P. H. P. Harbach,  A. W. Hauser,  J. E. Herr,  E. G. Hohenstein,  
 Z. C. Holden,  Kerwin Hui,  B. C. Huynh,  T.-C. Jagau,  Hyunjun Ji,  
 B. Kaduk,  K. Khistyaev,  Jaehoon Kim,  P. Klunzinger,  K. Koh,  
 D. Kosenkov,  L. Koulias,  T. Kowalczyk,  C. M. Krauter,  A. Kunitsa,  
 Ka Un Lao,  A. Laurent,  K. V. Lawler,  Joonho Lee,  D. Lefrancois,  
 S. Lehtola,  D. S. Levine,  Yi-Pei Li,  You-Sheng Lin,  Fenglai Liu,  
 E. Livshits,  A. Luenser,  P. Manohar,  E. Mansoor,  S. F. Manzer,  
 Shan-Ping Mao,  Yuezhi Mao,  N. Mardirossian,  A. V. Marenich,  
 T. Markovich,  L. A. Martinez-Martinez,  S. A. Maurer,  N. J. Mayhall,  
 S. C. McKenzie,  J.-M. Mewes,  A. F. Morrison,  J. W. Mullinax,  K. Nanda,  
 T. S. Nguyen-Beck,  R. Olivares-Amaya,  J. A. Parkhill,  T. M. Perrine,  
 F. Plasser,  P. Pokhilko,  S. Prager,  A. Prociuk,  E. Ramos,  D. R. Rehn,  
 F. Rob,  M. Schneider,  N. Sergueev,  S. M. Sharada,  S. Sharma,  
 D. W. Small,  T. Stauch,  T. Stein,  Yu-Chuan Su,  A. J. W. Thom,  
 A. Tkatchenko,  T. Tsuchimochi,  N. M. Tubman,  L. Vogt,  M. L. Vidal,  
 O. Vydrov,  M. A. Watson,  J. Wenzel,  M. de Wergifosse,  T. A. Wesolowski,  
 A. White,  J. Witte,  A. Yamada,  Jun Yang,  K. Yao,  S. Yeganeh,  
 S. R. Yost,  Zhi-Qiang You,  A. Zech,  Igor Ying Zhang,  Xing Zhang,  
 Yan Zhao,  Ying Zhu,  B. R. Brooks,  G. K. L. Chan,  C. J. Cramer,  
 M. S. Gordon,  W. J. Hehre,  A. Klamt,  M. W. Schmidt,  C. D. Sherrill,  
 D. G. Truhlar,  A. Aspuru-Guzik,  R. Baer,  A. T. Bell,  N. A. Besley,  
 Jeng-Da Chai,  A. E. DePrince, III,  R. A. DiStasio Jr.,  A. Dreuw,  
 B. D. Dunietz,  T. R. Furlani,  Chao-Ping Hsu,  Yousung Jung,  Jing Kong,  
 D. S. Lambrecht,  WanZhen Liang,  C. Ochsenfeld,  V. A. Rassolov,  
 L. V. Slipchenko,  J. E. Subotnik,  T. Van Voorhis,  J. M. Herbert,  
 A. I. Krylov,  P. M. W. Gill,  M. Head-Gordon

 Contributors to earlier versions of Q-Chem not listed above: 
 R. D. Adamson,  B. Austin,  J. Baker,  G. J. O. Beran,  K. Brandhorst,  
 S. T. Brown,  E. F. C. Byrd,  A. K. Chakraborty,  C.-L. Cheng,  
 Siu Hung Chien,  D. M. Chipman,  D. L. Crittenden,  H. Dachsel,  
 R. J. Doerksen,  A. D. Dutoi,  L. Fusti-Molnar,  W. A. Goddard III,  
 A. Golubeva-Zadorozhnaya,  S. R. Gwaltney,  G. Hawkins,  A. Heyden,  
 S. Hirata,  G. Kedziora,  F. J. Keil,  C. Kelley,  Jihan Kim,  R. A. King,  
 R. Z. Khaliullin,  P. P. Korambath,  W. Kurlancheek,  A. M. Lee,  M. S. Lee,  
 S. V. Levchenko,  Ching Yeh Lin,  D. Liotard,  R. C. Lochan,  I. Lotan,  
 P. E. Maslen,  N. Nair,  D. P. O'Neill,  D. Neuhauser,  E. Neuscamman,  
 C. M. Oana,  R. Olson,  B. Peters,  R. Peverati,  P. A. Pieniazek,  
 Y. M. Rhee,  J. Ritchie,  M. A. Rohrdanz,  E. Rosta,  N. J. Russ,  
 H. F. Schaefer III,  N. E. Schultz,  N. Shenvi,  A. C. Simmonett,  A. Sodt,  
 D. Stuck,  K. S. Thanthiriwatte,  V. Vanovschi,  Tao Wang,  A. Warshel,  
 C. F. Williams,  Q. Wu,  X. Xu,  W. Zhang

 Please cite Q-Chem as follows:
 Y. Shao et al., Mol. Phys. 113, 184-215 (2015)
 DOI: 10.1080/00268976.2014.952696

 Q-Chem 5.1.2 for Intel X86 EM64T Linux

 Parts of Q-Chem use Armadillo 8.300.2 (Tropical Shenanigans).
 http://arma.sourceforge.net/

 Q-Chem begins on Wed Jul 10 11:01:55 2019  

Host: 
0

     Scratch files written to /scratch/xuedong/qchem10830//
 Dec218 |scratch|qcdevops|jenkins|workspace|build_RNUM 6581   
Processing $rem in /home/qwang/software/qchem5.1.2/config/preferences.
 MEM_TOTAL  4000 
Core orbitals will be frozen
Input Ideriv = 1
Curr. Ideriv = -1
Max.  Ideriv = 1

Checking the input file for inconsistencies... 	...done.

--------------------------------------------------------------
User input:
--------------------------------------------------------------
$molecule
0 1
--
0 1
O     1.993924319     0.222020423    -0.365391964
H     2.143343877     1.158326366    -0.214403173
H     2.400388308    -0.198991600     0.395963117
--
0 1
Si    -1.406053728    -0.206159407     0.156612184
H    -2.851698921    -0.431410379     0.385988922
H    -1.067836351     1.144155971     0.651498615
H    -1.133105548    -0.310803596    -1.287243821
H    -0.652745714    -1.225632461     0.912491245
$end

$rem
BASIS = aug-cc-pVTZ
JOB_TYPE  =  BSSE
METHOD  =  MP2
SCF_CONVERGENCE  =  7
SCF_MAX_CYCLES  =  200
$end

--------------------------------------------------------------
 ----------------------------------------------------------------
             Standard Nuclear Orientation (Angstroms)
    I     Atom           X                Y                Z
 ----------------------------------------------------------------
    1      O       2.2120300384     0.0026374202    -0.1132667890
    2      H       2.4694180358     0.7444930138     0.4391771767
    3      H       2.4620088487    -0.7654018674     0.4061096683
    4      Si     -1.2524233206     0.0000017279     0.0017679618
    5      H      -2.7323141969    -0.0426464656     0.0384536313
    6      H      -0.7939699275     0.9309531443     1.0533406603
    7      H      -0.8244186552     0.4701389404    -1.3271241656
    8      H      -0.7430379229    -1.3586603172     0.2714258758
 ----------------------------------------------------------------
 Molecular Point Group                 C1    NOp =  1
 Largest Abelian Subgroup              C1    NOp =  1
 Nuclear Repulsion Energy =    57.2998490811 hartrees
 There are       14 alpha and       14 beta electrons
 Requested basis set is aug-cc-pVTZ
 There are 84 shells and 234 basis functions

 Total QAlloc Memory Limit   4000 MB
 Mega-Array Size       188 MB
 MEM_STATIC part       192 MB

                       Distance Matrix (Angstroms)
             O (  1)   H (  2)   H (  3)   Si(  4)   H (  5)   H (  6)
   H (  2)  0.960100
   H (  3)  0.960274  1.510275
   Si(  4)  3.466364  3.820693  3.813967
   H (  5)  4.946879  5.276190  5.257237  1.480960
   H (  6)  3.355410  3.325908  3.727992  1.477381  2.394801
   H (  7)  3.303336  3.747593  3.915516  1.473150  2.401628  2.424848
   H (  8)  3.276209  3.843341  3.262272  1.475856  2.396537  2.419982
             H (  7)
   H (  8)  2.430328
 
 A cutoff of  1.0D-10 yielded   3403 shell pairs
 There are     26399 function pairs (     33709 Cartesian)
 
 -------------------------------------------------------
 OpenMP Integral Computing Module                       
 Release: version 1.0, May 2013, Q-Chem Inc. Pittsburgh 
 -------------------------------------------------------
 Integral Job Info:
 Integral job number is                      11
 Integral operator is                         1
 short-range coefficients                     0
 long-range coefficients              100000000
 Omega coefficients                           0
 if combine SR and LR in K                    0
 Integral screening is                        0
 Integral computing path is                   2
 max size of driver memory is            800000
 size of driver memory is                776718
 size of scratch memory is             29531563
 max col of scratch BK array              10000
 max len of scratch array in speh3          662
 max len of scratch index in speh4           32
 max int batch size is                      520
 min int batch size is                       52
 fixed nKL is                                31
 max L of basis functions is                  3
 order of int derivative is                   0
 number of shells is                         84
 number of basis is                         264
 number of cartesian basis is               264
 number of contracted shell pairs          3403
 number of primitive shell pairs          10409
 maxK2 (contraction) of shell pair          169
 max number of K2 of shell pair               1
 max number of CS2 of shell pair            591
 max number of PS2 of shell pair           1014
 mem total for path MDJ                  590428
 -------------------------------------------------------
 Smallest overlap matrix eigenvalue = 1.44E-05

 Scale SEOQF with 1.000000e-01/1.000000e-01/1.000000e-01

 Standard Electronic Orientation quadrupole field applied
 Nucleus-field energy     =     0.0000000029 hartrees
 Guess MOs from converged MOs on fragments

-----------------------------------------------------------------
 SCF on fragment 1 out of 2
/home/qwang/software/qchem5.1.2/exe/qcprog.exe /scratch/xuedong/qchem10830/Frg1.input /scratch/xuedong/qchem10830/Frg1/ > /dev/null 
 SCF on fragment 2 out of 2
/home/qwang/software/qchem5.1.2/exe/qcprog.exe /scratch/xuedong/qchem10830/Frg2.input /scratch/xuedong/qchem10830/Frg2/ > /dev/null 
-----------------------------------------------------------------
 Done with SCF on isolated fragments
-----------------------------------------------------------------

 User-specified occupied guess orbitals will be used
 A restricted Hartree-Fock SCF calculation will be
 performed using Pulay DIIS extrapolation
 SCF converges when DIIS error is below 1.0E-07
 using 6 threads for integral computing
 -------------------------------------------------------
 OpenMP Integral computing Module                
 Release: version 1.0, May 2013, Q-Chem Inc. Pittsburgh 
 -------------------------------------------------------
 ---------------------------------------
  Cycle       Energy         DIIS Error
 ---------------------------------------
    1    -367.3212758807      2.28E-04
    2    -367.3219419172      4.63E-05
    3    -367.3219772851      1.53E-05
    4    -367.3219797725      6.83E-06
    5    -367.3219801865      1.32E-06
    6    -367.3219802163      2.69E-07
    7    -367.3219802175      7.00E-08 Convergence criterion met
 ---------------------------------------
 SCF time:  CPU 77.53 s  wall 12.96 s

-----------------------------------------------------------------
 SCF CP correction for fragment 1 out of 2
/home/qwang/software/qchem5.1.2/exe/qcprog.exe /scratch/xuedong/qchem10830/Frg1.input /scratch/xuedong/qchem10830/Frg1BSSE/ > /dev/null 
 SCF CP correction for fragment 2 out of 2
/home/qwang/software/qchem5.1.2/exe/qcprog.exe /scratch/xuedong/qchem10830/Frg2.input /scratch/xuedong/qchem10830/Frg2BSSE/ > /dev/null 
-----------------------------------------------------------------
 Done with counterpoise correction on fragments
-----------------------------------------------------------------

 SCF   energy in the final basis set = -367.32198022
 Total energy in the final basis set = -367.32198022
 
 Components of the MP2 correlation energy:
        aaaa  correlation energy =        -0.0403115437 au
        abab  correlation energy =        -0.3353858016 au
        bbbb  correlation energy =        -0.0403115437 au
        non-Brillouin singles    =        -0.0000000000 au

 Total  MP2   correlation energy =                    -0.41600889 au
        MP2         total energy =                  -367.73798911 au
 
 --------------------------------------------------------------
 
                    Orbital Energies (a.u.)
 --------------------------------------------------------------
 
 Alpha MOs
 -- Occupied --
-68.765 -20.573  -6.114  -4.220  -4.220  -4.220  -1.358  -0.721
 -0.720  -0.592  -0.519  -0.479  -0.478  -0.471
 -- Virtual --
  0.026   0.043   0.047   0.060   0.066   0.068   0.073   0.077
  0.100   0.130   0.145   0.153   0.160   0.165   0.167   0.178
  0.186   0.199   0.230   0.237   0.240   0.253   0.256   0.260
  0.264   0.291   0.297   0.305   0.312   0.316   0.331   0.334
  0.371   0.377   0.403   0.410   0.410   0.427   0.431   0.438
  0.442   0.460   0.468   0.520   0.527   0.529   0.567   0.575
  0.603   0.614   0.617   0.628   0.629   0.642   0.646   0.662
  0.667   0.671   0.673   0.686   0.774   0.788   0.818   0.838
  0.855   0.873   0.882   0.930   0.943   0.952   0.959   0.964
  0.977   0.986   0.994   1.000   1.003   1.031   1.046   1.057
  1.072   1.086   1.098   1.104   1.125   1.127   1.141   1.187
  1.203   1.206   1.208   1.217   1.222   1.232   1.254   1.275
  1.281   1.299   1.306   1.334   1.342   1.353   1.370   1.381
  1.388   1.398   1.403   1.436   1.438   1.474   1.493   1.504
  1.559   1.568   1.582   1.630   1.682   1.800   1.833   1.909
  1.914   1.927   1.980   1.988   2.007   2.010   2.021   2.028
  2.040   2.047   2.150   2.241   2.245   2.260   2.327   2.371
  2.428   2.459   2.484   2.499   2.573   2.700   2.770   2.803
  2.828   2.913   3.087   3.091   3.146   3.354   3.581   3.609
  3.633   3.745   3.786   3.970   3.979   3.985   3.999   4.025
  4.056   4.074   4.079   4.088   4.160   4.165   4.184   4.209
  4.249   4.259   4.275   4.277   4.281   4.284   4.306   4.321
  4.375   4.412   4.426   4.438   4.466   4.487   4.516   4.525
  4.579   4.581   4.629   4.766   4.771   4.778   4.846   4.864
  4.893   4.910   4.969   5.113   5.123   5.136   5.157   5.184
  5.259   5.346   5.552   5.719   6.227   6.534   6.721   6.918
  7.171   7.297   7.323   7.332   7.376   7.381   7.563   7.896
  7.942   8.809   8.835  15.876
 --------------------------------------------------------------
 
          Ground-State Mulliken Net Atomic Charges

     Atom                 Charge (a.u.)
  ----------------------------------------
      1 O                    -0.442746
      2 H                     0.221465
      3 H                     0.220723
      4 Si                    1.571540
      5 H                    -0.521391
      6 H                    -0.355933
      7 H                    -0.341639
      8 H                    -0.352020
  ----------------------------------------
  Sum of atomic charges =     0.000000

 -----------------------------------------------------------------
                    Cartesian Multipole Moments
 -----------------------------------------------------------------
    Charge (ESU x 10^10)
                 0.0000
    Dipole Moment (Debye)
         X       1.2358      Y      -0.0381      Z       1.6545
       Tot       2.0654
    Quadrupole Moments (Debye-Ang)
        XX     -20.8223     XY      -0.1058     YY     -21.1637
        XZ       4.7161     YZ       0.0278     ZZ     -23.3094
    Octopole Moments (Debye-Ang^2)
       XXX      31.7508    XXY      -0.1035    XYY      11.5019
       YYY       0.8799    XXZ      11.6268    XYZ       0.1013
       YYZ       0.4324    XZZ       6.2080    YZZ      -1.0062
       ZZZ       1.1960
    Hexadecapole Moments (Debye-Ang^3)
      XXXX    -403.4665   XXXY      -0.9123   XXYY     -60.5016
      XYYY      -1.4912   YYYY     -49.5360   XXXZ      31.8772
      XXYZ       0.3336   XYYZ       4.2144   YYYZ       0.0156
      XXZZ     -73.7100   XYZZ       1.4619   YYZZ     -16.4657
      XZZZ       1.9738   YZZZ      -0.0747   ZZZZ     -50.4008
 -----------------------------------------------------------------

 ---------------------------------------------------------------------
 *                     Fragment's binding energy                     *
 ---------------------------------------------------------------------
    Fragment           E(TOTAL)         E(CP-CORR)           DE(BSSE)
 ---------------------------------------------------------------------
           1     -76.3289848459     -76.3292277592       0.0002429133
           2    -291.4064822450    -291.4066549700       0.0001727250
     Complex    -367.7379891063
 ---------------------------------------------------------------------
  DE, kJ/mol      -6.6216301714      -5.5303588792
 ---------------------------------------------------------------------

Archival summary:
1\1\gm4.localdomain\SP\MP2\BasisUnspecified\i116\xuedong\WedJul1011:03:412019WedJul1011:03:412019\0\\#,MP2,BasisUnspecified,\\0,1\Si\H,1,1.47315\H,1,1.47586,2,110.998\H,1,1.47738,2,110.538,3,122.416,0\H,1,1.48096,2,108.776,3,-119.049,0\H,3,3.26227,1,100.324,2,66.213,0\O,6,0.960274,3,82.3782,1,-22.4522,0\H,7,0.9601,6,103.71,3,118.474,0\\HF=-367.32198\MP2=-367.737989\\@

 Total job time:  105.65s(wall), 220.94s(cpu) 
 Wed Jul 10 11:03:41 2019

        *************************************************************
        *                                                           *
        *  Thank you very much for using Q-Chem.  Have a nice day.  *
        *                                                           *
        *************************************************************


