
Running Job 1 of 1 ../qm_inp/SiH4_SiH4_con2.100.qcinp
qchem ../qm_inp/SiH4_SiH4_con2.100.qcinp_847.0 /scratch/xuedong/qchem847/ 1
/home/qwang/software/qchem5.1.2/exe/qcprog.exe_s ../qm_inp/SiH4_SiH4_con2.100.qcinp_847.0 /scratch/xuedong/qchem847/
Check license passed

                  Welcome to Q-Chem
     A Quantum Leap Into The Future Of Chemistry


 Q-Chem 5.1, Q-Chem, Inc., Pleasanton, CA (2018)

 Yihan Shao,  Zhengting Gan,  E. Epifanovsky,  A. T. B. Gilbert,  M. Wormit,  
 J. Kussmann,  A. W. Lange,  A. Behn,  Jia Deng,  Xintian Feng,  D. Ghosh,  
 M. Goldey,  P. R. Horn,  L. D. Jacobson,  I. Kaliman,  T. Kus,  A. Landau,  
 Jie Liu,  E. I. Proynov,  R. M. Richard,  R. P. Steele,  E. J. Sundstrom,  
 H. L. Woodcock III,  P. M. Zimmerman,  D. Zuev,  B. Albrecht,  E. Alguire,  
 S. A. Baeppler,  D. Barton,  Z. Benda,  Y. A. Bernard,  E. J. Berquist,  
 K. B. Bravaya,  H. Burton,  D. Casanova,  Chun-Min Chang,  Yunqing Chen,  
 A. Chien,  K. D. Closser,  M. P. Coons,  S. Coriani,  S. Dasgupta,  
 A. L. Dempwolff,  M. Diedenhofen,  Hainam Do,  R. G. Edgar,  Po-Tung Fang,  
 S. Faraji,  S. Fatehi,  Qingguo Feng,  K. D. Fenk,  J. Fosso-Tande,  
 J. Gayvert,  Qinghui Ge,  A. Ghysels,  G. Gidofalvi,  J. Gomes,  
 J. Gonthier,  A. Gunina,  D. Hait,  M. W. D. Hanson-Heine,  
 P. H. P. Harbach,  A. W. Hauser,  J. E. Herr,  E. G. Hohenstein,  
 Z. C. Holden,  Kerwin Hui,  B. C. Huynh,  T.-C. Jagau,  Hyunjun Ji,  
 B. Kaduk,  K. Khistyaev,  Jaehoon Kim,  P. Klunzinger,  K. Koh,  
 D. Kosenkov,  L. Koulias,  T. Kowalczyk,  C. M. Krauter,  A. Kunitsa,  
 Ka Un Lao,  A. Laurent,  K. V. Lawler,  Joonho Lee,  D. Lefrancois,  
 S. Lehtola,  D. S. Levine,  Yi-Pei Li,  You-Sheng Lin,  Fenglai Liu,  
 E. Livshits,  A. Luenser,  P. Manohar,  E. Mansoor,  S. F. Manzer,  
 Shan-Ping Mao,  Yuezhi Mao,  N. Mardirossian,  A. V. Marenich,  
 T. Markovich,  L. A. Martinez-Martinez,  S. A. Maurer,  N. J. Mayhall,  
 S. C. McKenzie,  J.-M. Mewes,  A. F. Morrison,  J. W. Mullinax,  K. Nanda,  
 T. S. Nguyen-Beck,  R. Olivares-Amaya,  J. A. Parkhill,  T. M. Perrine,  
 F. Plasser,  P. Pokhilko,  S. Prager,  A. Prociuk,  E. Ramos,  D. R. Rehn,  
 F. Rob,  M. Schneider,  N. Sergueev,  S. M. Sharada,  S. Sharma,  
 D. W. Small,  T. Stauch,  T. Stein,  Yu-Chuan Su,  A. J. W. Thom,  
 A. Tkatchenko,  T. Tsuchimochi,  N. M. Tubman,  L. Vogt,  M. L. Vidal,  
 O. Vydrov,  M. A. Watson,  J. Wenzel,  M. de Wergifosse,  T. A. Wesolowski,  
 A. White,  J. Witte,  A. Yamada,  Jun Yang,  K. Yao,  S. Yeganeh,  
 S. R. Yost,  Zhi-Qiang You,  A. Zech,  Igor Ying Zhang,  Xing Zhang,  
 Yan Zhao,  Ying Zhu,  B. R. Brooks,  G. K. L. Chan,  C. J. Cramer,  
 M. S. Gordon,  W. J. Hehre,  A. Klamt,  M. W. Schmidt,  C. D. Sherrill,  
 D. G. Truhlar,  A. Aspuru-Guzik,  R. Baer,  A. T. Bell,  N. A. Besley,  
 Jeng-Da Chai,  A. E. DePrince, III,  R. A. DiStasio Jr.,  A. Dreuw,  
 B. D. Dunietz,  T. R. Furlani,  Chao-Ping Hsu,  Yousung Jung,  Jing Kong,  
 D. S. Lambrecht,  WanZhen Liang,  C. Ochsenfeld,  V. A. Rassolov,  
 L. V. Slipchenko,  J. E. Subotnik,  T. Van Voorhis,  J. M. Herbert,  
 A. I. Krylov,  P. M. W. Gill,  M. Head-Gordon

 Contributors to earlier versions of Q-Chem not listed above: 
 R. D. Adamson,  B. Austin,  J. Baker,  G. J. O. Beran,  K. Brandhorst,  
 S. T. Brown,  E. F. C. Byrd,  A. K. Chakraborty,  C.-L. Cheng,  
 Siu Hung Chien,  D. M. Chipman,  D. L. Crittenden,  H. Dachsel,  
 R. J. Doerksen,  A. D. Dutoi,  L. Fusti-Molnar,  W. A. Goddard III,  
 A. Golubeva-Zadorozhnaya,  S. R. Gwaltney,  G. Hawkins,  A. Heyden,  
 S. Hirata,  G. Kedziora,  F. J. Keil,  C. Kelley,  Jihan Kim,  R. A. King,  
 R. Z. Khaliullin,  P. P. Korambath,  W. Kurlancheek,  A. M. Lee,  M. S. Lee,  
 S. V. Levchenko,  Ching Yeh Lin,  D. Liotard,  R. C. Lochan,  I. Lotan,  
 P. E. Maslen,  N. Nair,  D. P. O'Neill,  D. Neuhauser,  E. Neuscamman,  
 C. M. Oana,  R. Olson,  B. Peters,  R. Peverati,  P. A. Pieniazek,  
 Y. M. Rhee,  J. Ritchie,  M. A. Rohrdanz,  E. Rosta,  N. J. Russ,  
 H. F. Schaefer III,  N. E. Schultz,  N. Shenvi,  A. C. Simmonett,  A. Sodt,  
 D. Stuck,  K. S. Thanthiriwatte,  V. Vanovschi,  Tao Wang,  A. Warshel,  
 C. F. Williams,  Q. Wu,  X. Xu,  W. Zhang

 Please cite Q-Chem as follows:
 Y. Shao et al., Mol. Phys. 113, 184-215 (2015)
 DOI: 10.1080/00268976.2014.952696

 Q-Chem 5.1.2 for Intel X86 EM64T Linux

 Parts of Q-Chem use Armadillo 8.300.2 (Tropical Shenanigans).
 http://arma.sourceforge.net/

 Q-Chem begins on Wed Jun 12 18:16:52 2019  

Host: 
0

     Scratch files written to /scratch/xuedong/qchem847//
 Dec218 |scratch|qcdevops|jenkins|workspace|build_RNUM 6581   
Processing $rem in /home/qwang/software/qchem5.1.2/config/preferences.
 MEM_TOTAL  4000 
Core orbitals will be frozen
Input Ideriv = 1
Curr. Ideriv = -1
Max.  Ideriv = 1

Checking the input file for inconsistencies... 	...done.

--------------------------------------------------------------
User input:
--------------------------------------------------------------
$molecule
0 1
--
0 1
Si     2.173201226     0.002277085    -0.000827763
H     2.463893195     1.428917805     0.248702748
H     1.532427706    -0.146056866    -1.323881333
H     1.257386864    -0.502442133     1.043232525
H     3.430773868    -0.772002931     0.029153171
--
0 1
Si    -2.172678691    -0.002434128     0.000813670
H    -1.649911872     0.363356015    -1.331830070
H    -1.846161937    -1.414465155     0.287002233
H    -3.638412896     0.181004334     0.022549769
H    -1.551596545     0.863066139     1.024760696
$end

$rem
BASIS = aug-cc-pVTZ
JOB_TYPE  =  BSSE
METHOD  =  MP2
SCF_CONVERGENCE  =  8
SCF_MAX_CYCLES  =  200
$end

--------------------------------------------------------------
 ----------------------------------------------------------------
             Standard Nuclear Orientation (Angstroms)
    I     Atom           X                Y                Z
 ----------------------------------------------------------------
    1      Si      2.1730438745     0.0000708388    -0.0000681293
    2      H       2.4651103063     1.4390593738     0.1614256362
    3      H       1.5325754940    -0.2286586388    -1.3117645476
    4      H       1.2563529050    -0.4386075458     1.0726658829
    5      H       3.4298126387    -0.7721608126     0.0779568634
    6      Si     -2.1728388959    -0.0001813765     0.0000891386
    7      H      -1.6492378879     0.2824871371    -1.3523040769
    8      H      -1.8478669073    -1.3922792500     0.3726551362
    9      H      -3.6383919223     0.1857129866     0.0099125717
   10      H      -1.5512243262     0.9259942768     0.9691584045
 ----------------------------------------------------------------
 Molecular Point Group                 C1    NOp =  1
 Largest Abelian Subgroup              C1    NOp =  1
 Nuclear Repulsion Energy =    81.9836449652 hartrees
 There are       18 alpha and       18 beta electrons
 Requested basis set is aug-cc-pVTZ
 There are 104 shells and 284 basis functions

 Total QAlloc Memory Limit   4000 MB
 Mega-Array Size       188 MB
 MEM_STATIC part       192 MB

                       Distance Matrix (Angstroms)
             Si(  1)   H (  2)   H (  3)   H (  4)   H (  5)   Si(  6)
   H (  2)  1.477183
   H (  3)  1.477520  2.412715
   H (  4)  1.477674  2.411864  2.409541
   H (  5)  1.477125  2.413941  2.413758  2.413427
   Si(  6)  4.345883  4.858808  3.937418  3.619668  5.656122
   H (  7)  4.064251  4.533972  3.222864  3.852650  5.380956  1.477507
   H (  8)  4.271450  5.163610  3.952047  3.322000  5.322151  1.477277
   H (  9)  5.814409  6.232702  5.353264  5.047549  7.133139  1.477328
   H ( 10)  3.958145  4.128754  4.005703  3.123354  5.337481  1.477600
             H (  7)   H (  8)   H (  9)
   H (  8)  2.412422
   H (  9)  2.412827  2.414047
   H ( 10)  2.410995  2.412096  2.413387
 
 A cutoff of  1.0D-11 yielded   5152 shell pairs
 There are     38314 function pairs (     48223 Cartesian)
 
 -------------------------------------------------------
 OpenMP Integral Computing Module                       
 Release: version 1.0, May 2013, Q-Chem Inc. Pittsburgh 
 -------------------------------------------------------
 Integral Job Info:
 Integral job number is                      11
 Integral operator is                         1
 short-range coefficients                     0
 long-range coefficients              100000000
 Omega coefficients                           0
 if combine SR and LR in K                    0
 Integral screening is                        0
 Integral computing path is                   2
 max size of driver memory is            800000
 size of driver memory is                776718
 size of scratch memory is             29531563
 max col of scratch BK array              10000
 max len of scratch array in speh3          662
 max len of scratch index in speh4           32
 max int batch size is                      520
 min int batch size is                       52
 fixed nKL is                                31
 max L of basis functions is                  3
 order of int derivative is                   0
 number of shells is                        104
 number of basis is                         318
 number of cartesian basis is               318
 number of contracted shell pairs          5152
 number of primitive shell pairs          17598
 maxK2 (contraction) of shell pair          169
 max number of K2 of shell pair               1
 max number of CS2 of shell pair            926
 max number of PS2 of shell pair           2132
 mem total for path MDJ                  633900
 -------------------------------------------------------
 Smallest overlap matrix eigenvalue = 1.39E-05

 Scale SEOQF with 1.000000e-01/1.000000e-01/1.000000e-01

 Standard Electronic Orientation quadrupole field applied
 Nucleus-field energy     =     0.0000000061 hartrees
 Guess MOs from converged MOs on fragments

-----------------------------------------------------------------
 SCF on fragment 1 out of 2
/home/qwang/software/qchem5.1.2/exe/qcprog.exe /scratch/xuedong/qchem847/Frg1.input /scratch/xuedong/qchem847/Frg1/ > /dev/null 
 SCF on fragment 2 out of 2
/home/qwang/software/qchem5.1.2/exe/qcprog.exe /scratch/xuedong/qchem847/Frg2.input /scratch/xuedong/qchem847/Frg2/ > /dev/null 
-----------------------------------------------------------------
 Done with SCF on isolated fragments
-----------------------------------------------------------------

 User-specified occupied guess orbitals will be used
 A restricted Hartree-Fock SCF calculation will be
 performed using Pulay DIIS extrapolation
 SCF converges when DIIS error is below 1.0E-08
 using 6 threads for integral computing
 -------------------------------------------------------
 OpenMP Integral computing Module                
 Release: version 1.0, May 2013, Q-Chem Inc. Pittsburgh 
 -------------------------------------------------------
 ---------------------------------------
  Cycle       Energy         DIIS Error
 ---------------------------------------
    1    -582.5208491152      1.20E-04
    2    -582.5210700111      1.46E-05
    3    -582.5210754007      2.06E-06
    4    -582.5210755410      4.12E-07
    5    -582.5210755474      8.89E-08
    6    -582.5210755478      1.73E-08
    7    -582.5210755478      3.68E-09 Convergence criterion met
 ---------------------------------------
 SCF time:  CPU 189.94 s  wall 31.68 s

-----------------------------------------------------------------
 SCF CP correction for fragment 1 out of 2
/home/qwang/software/qchem5.1.2/exe/qcprog.exe /scratch/xuedong/qchem847/Frg1.input /scratch/xuedong/qchem847/Frg1BSSE/ > /dev/null 
 SCF CP correction for fragment 2 out of 2
/home/qwang/software/qchem5.1.2/exe/qcprog.exe /scratch/xuedong/qchem847/Frg2.input /scratch/xuedong/qchem847/Frg2BSSE/ > /dev/null 
-----------------------------------------------------------------
 Done with counterpoise correction on fragments
-----------------------------------------------------------------

 SCF   energy in the final basis set = -582.52107555
 Total energy in the final basis set = -582.52107555
 
 Components of the MP2 correlation energy:
        aaaa  correlation energy =        -0.0151548411 au
        abab  correlation energy =        -0.2632219160 au
        bbbb  correlation energy =        -0.0151548411 au
        non-Brillouin singles    =        -0.0000000000 au

 Total  MP2   correlation energy =                    -0.29353160 au
        MP2         total energy =                  -582.81460715 au
 
 --------------------------------------------------------------
 
                    Orbital Energies (a.u.)
 --------------------------------------------------------------
 
 Alpha MOs
 -- Occupied --
-68.775 -68.774  -6.124  -6.124  -4.230  -4.230  -4.230  -4.230
 -4.230  -4.230  -0.735  -0.729  -0.494  -0.492  -0.488  -0.486
 -0.482  -0.480
 -- Virtual --
  0.030   0.040   0.053   0.053   0.060   0.061   0.062   0.068
  0.074   0.079   0.082   0.087   0.097   0.115   0.144   0.146
  0.148   0.152   0.157   0.158   0.159   0.163   0.172   0.183
  0.188   0.209   0.232   0.236   0.242   0.246   0.248   0.264
  0.264   0.274   0.277   0.283   0.290   0.302   0.304   0.310
  0.316   0.329   0.335   0.340   0.347   0.354   0.363   0.388
  0.394   0.409   0.422   0.425   0.431   0.435   0.445   0.457
  0.472   0.480   0.492   0.512   0.517   0.523   0.533   0.558
  0.571   0.580   0.589   0.594   0.602   0.607   0.609   0.619
  0.620   0.629   0.635   0.637   0.652   0.658   0.661   0.663
  0.670   0.684   0.687   0.692   0.697   0.705   0.715   0.788
  0.813   0.865   0.904   0.921   0.937   0.946   0.957   0.966
  0.968   0.973   0.984   0.989   0.996   1.011   1.013   1.033
  1.035   1.040   1.065   1.076   1.083   1.098   1.106   1.110
  1.116   1.132   1.152   1.169   1.189   1.195   1.200   1.204
  1.206   1.209   1.218   1.229   1.252   1.258   1.263   1.268
  1.269   1.288   1.298   1.311   1.328   1.329   1.341   1.346
  1.356   1.358   1.363   1.369   1.372   1.377   1.381   1.392
  1.403   1.411   1.423   1.430   1.441   1.453   1.465   1.489
  1.496   1.498   1.518   1.535   1.548   1.560   1.578   1.639
  1.699   1.841   1.891   1.907   1.922   1.932   1.956   1.973
  1.989   1.991   1.996   2.004   2.010   2.011   2.016   2.029
  2.048   2.056   2.063   2.094   2.233   2.235   2.238   2.245
  2.253   2.260   3.052   3.062   3.073   3.078   3.132   3.188
  3.324   3.358   3.544   3.568   3.595   3.618   3.636   3.682
  3.932   3.950   3.955   3.966   3.974   3.995   4.004   4.014
  4.043   4.059   4.064   4.072   4.078   4.083   4.094   4.141
  4.154   4.159   4.165   4.179   4.184   4.202   4.260   4.268
  4.270   4.272   4.274   4.278   4.283   4.283   4.297   4.299
  4.308   4.336   4.426   4.430   4.454   4.467   4.480   4.494
  4.561   4.565   4.568   4.575   4.583   4.596   4.746   4.753
  4.772   4.792   4.835   4.844   4.848   4.857   4.863   4.875
  4.964   4.989   5.097   5.103   5.109   5.114   5.135   5.163
  8.762   8.906
 --------------------------------------------------------------
 
          Ground-State Mulliken Net Atomic Charges

     Atom                 Charge (a.u.)
  ----------------------------------------
      1 Si                    1.532741
      2 H                    -0.390832
      3 H                    -0.368299
      4 H                    -0.351891
      5 H                    -0.416775
      6 Si                    1.460112
      7 H                    -0.340452
      8 H                    -0.353888
      9 H                    -0.442320
     10 H                    -0.328396
  ----------------------------------------
  Sum of atomic charges =    -0.000000

 -----------------------------------------------------------------
                    Cartesian Multipole Moments
 -----------------------------------------------------------------
    Charge (ESU x 10^10)
                -0.0000
    Dipole Moment (Debye)
         X       0.0304      Y      -0.0113      Z       0.0050
       Tot       0.0328
    Quadrupole Moments (Debye-Ang)
        XX     -33.4365     XY       0.0419     YY     -33.5146
        XZ      -0.0084     YZ      -0.0015     ZZ     -33.4622
    Octopole Moments (Debye-Ang^2)
       XXX       1.4682    XXY       0.4752    XYY      -1.2682
       YYY      -0.3452    XXZ      -0.3157    XYZ      -0.2427
       YYZ      -1.1158    XZZ       0.3514    YZZ      -0.1984
       ZZZ       1.4501
    Hexadecapole Moments (Debye-Ang^3)
      XXXX   -1052.8235   XXXY       8.5368   XXYY    -186.6499
      XYYY      -5.2867   YYYY     -85.3384   XXXZ      -1.7231
      XXYZ      -0.1196   XYYZ       1.2285   YYYZ      -0.0003
      XXZZ    -177.1816   XYZZ       2.7238   YYZZ     -28.5653
      XZZZ      -0.6573   YZZZ       0.0032   ZZZZ     -85.0877
 -----------------------------------------------------------------

 ---------------------------------------------------------------------
 *                     Fragment's binding energy                     *
 ---------------------------------------------------------------------
    Fragment           E(TOTAL)         E(CP-CORR)           DE(BSSE)
 ---------------------------------------------------------------------
           1    -291.4066300361    -291.4068274947       0.0001974586
           2    -291.4066309893    -291.4068262846       0.0001952953
     Complex    -582.8146071459
 ---------------------------------------------------------------------
  DE, kJ/mol      -3.5342813489      -2.5030937609
 ---------------------------------------------------------------------

Archival summary:
1\1\mm2.localdomain\SP\MP2\BasisUnspecified\i28\xuedong\WedJun1218:20:552019WedJun1218:20:552019\0\\#,MP2,BasisUnspecified,\\0,1\Si\H,1,1.47728\H,1,1.47733,2,109.58\H,1,1.47751,2,109.461,3,-120.078,0\H,1,1.4776,2,109.434,3,120.102,0\H,5,3.12335,1,97.2407,2,45.152,0\Si,6,1.47767,5,113.821,1,84.9454,0\H,7,1.47712,6,109.528,5,-175.876,0\H,7,1.47718,6,109.42,5,63.9759,0\H,7,1.47752,6,109.246,5,-55.8724,0\\HF=-582.521076\MP2=-582.814607\\@

 Total job time:  243.00s(wall), 490.50s(cpu) 
 Wed Jun 12 18:20:55 2019

        *************************************************************
        *                                                           *
        *  Thank you very much for using Q-Chem.  Have a nice day.  *
        *                                                           *
        *************************************************************


