
Running Job 1 of 1 ../qm_inp/SiH4_water.120.qcinp
qchem ../qm_inp/SiH4_water.120.qcinp_10900.0 /scratch/xuedong/qchem10900/ 1
/home/qwang/software/qchem5.1.2/exe/qcprog.exe_s ../qm_inp/SiH4_water.120.qcinp_10900.0 /scratch/xuedong/qchem10900/
Check license passed

                  Welcome to Q-Chem
     A Quantum Leap Into The Future Of Chemistry


 Q-Chem 5.1, Q-Chem, Inc., Pleasanton, CA (2018)

 Yihan Shao,  Zhengting Gan,  E. Epifanovsky,  A. T. B. Gilbert,  M. Wormit,  
 J. Kussmann,  A. W. Lange,  A. Behn,  Jia Deng,  Xintian Feng,  D. Ghosh,  
 M. Goldey,  P. R. Horn,  L. D. Jacobson,  I. Kaliman,  T. Kus,  A. Landau,  
 Jie Liu,  E. I. Proynov,  R. M. Richard,  R. P. Steele,  E. J. Sundstrom,  
 H. L. Woodcock III,  P. M. Zimmerman,  D. Zuev,  B. Albrecht,  E. Alguire,  
 S. A. Baeppler,  D. Barton,  Z. Benda,  Y. A. Bernard,  E. J. Berquist,  
 K. B. Bravaya,  H. Burton,  D. Casanova,  Chun-Min Chang,  Yunqing Chen,  
 A. Chien,  K. D. Closser,  M. P. Coons,  S. Coriani,  S. Dasgupta,  
 A. L. Dempwolff,  M. Diedenhofen,  Hainam Do,  R. G. Edgar,  Po-Tung Fang,  
 S. Faraji,  S. Fatehi,  Qingguo Feng,  K. D. Fenk,  J. Fosso-Tande,  
 J. Gayvert,  Qinghui Ge,  A. Ghysels,  G. Gidofalvi,  J. Gomes,  
 J. Gonthier,  A. Gunina,  D. Hait,  M. W. D. Hanson-Heine,  
 P. H. P. Harbach,  A. W. Hauser,  J. E. Herr,  E. G. Hohenstein,  
 Z. C. Holden,  Kerwin Hui,  B. C. Huynh,  T.-C. Jagau,  Hyunjun Ji,  
 B. Kaduk,  K. Khistyaev,  Jaehoon Kim,  P. Klunzinger,  K. Koh,  
 D. Kosenkov,  L. Koulias,  T. Kowalczyk,  C. M. Krauter,  A. Kunitsa,  
 Ka Un Lao,  A. Laurent,  K. V. Lawler,  Joonho Lee,  D. Lefrancois,  
 S. Lehtola,  D. S. Levine,  Yi-Pei Li,  You-Sheng Lin,  Fenglai Liu,  
 E. Livshits,  A. Luenser,  P. Manohar,  E. Mansoor,  S. F. Manzer,  
 Shan-Ping Mao,  Yuezhi Mao,  N. Mardirossian,  A. V. Marenich,  
 T. Markovich,  L. A. Martinez-Martinez,  S. A. Maurer,  N. J. Mayhall,  
 S. C. McKenzie,  J.-M. Mewes,  A. F. Morrison,  J. W. Mullinax,  K. Nanda,  
 T. S. Nguyen-Beck,  R. Olivares-Amaya,  J. A. Parkhill,  T. M. Perrine,  
 F. Plasser,  P. Pokhilko,  S. Prager,  A. Prociuk,  E. Ramos,  D. R. Rehn,  
 F. Rob,  M. Schneider,  N. Sergueev,  S. M. Sharada,  S. Sharma,  
 D. W. Small,  T. Stauch,  T. Stein,  Yu-Chuan Su,  A. J. W. Thom,  
 A. Tkatchenko,  T. Tsuchimochi,  N. M. Tubman,  L. Vogt,  M. L. Vidal,  
 O. Vydrov,  M. A. Watson,  J. Wenzel,  M. de Wergifosse,  T. A. Wesolowski,  
 A. White,  J. Witte,  A. Yamada,  Jun Yang,  K. Yao,  S. Yeganeh,  
 S. R. Yost,  Zhi-Qiang You,  A. Zech,  Igor Ying Zhang,  Xing Zhang,  
 Yan Zhao,  Ying Zhu,  B. R. Brooks,  G. K. L. Chan,  C. J. Cramer,  
 M. S. Gordon,  W. J. Hehre,  A. Klamt,  M. W. Schmidt,  C. D. Sherrill,  
 D. G. Truhlar,  A. Aspuru-Guzik,  R. Baer,  A. T. Bell,  N. A. Besley,  
 Jeng-Da Chai,  A. E. DePrince, III,  R. A. DiStasio Jr.,  A. Dreuw,  
 B. D. Dunietz,  T. R. Furlani,  Chao-Ping Hsu,  Yousung Jung,  Jing Kong,  
 D. S. Lambrecht,  WanZhen Liang,  C. Ochsenfeld,  V. A. Rassolov,  
 L. V. Slipchenko,  J. E. Subotnik,  T. Van Voorhis,  J. M. Herbert,  
 A. I. Krylov,  P. M. W. Gill,  M. Head-Gordon

 Contributors to earlier versions of Q-Chem not listed above: 
 R. D. Adamson,  B. Austin,  J. Baker,  G. J. O. Beran,  K. Brandhorst,  
 S. T. Brown,  E. F. C. Byrd,  A. K. Chakraborty,  C.-L. Cheng,  
 Siu Hung Chien,  D. M. Chipman,  D. L. Crittenden,  H. Dachsel,  
 R. J. Doerksen,  A. D. Dutoi,  L. Fusti-Molnar,  W. A. Goddard III,  
 A. Golubeva-Zadorozhnaya,  S. R. Gwaltney,  G. Hawkins,  A. Heyden,  
 S. Hirata,  G. Kedziora,  F. J. Keil,  C. Kelley,  Jihan Kim,  R. A. King,  
 R. Z. Khaliullin,  P. P. Korambath,  W. Kurlancheek,  A. M. Lee,  M. S. Lee,  
 S. V. Levchenko,  Ching Yeh Lin,  D. Liotard,  R. C. Lochan,  I. Lotan,  
 P. E. Maslen,  N. Nair,  D. P. O'Neill,  D. Neuhauser,  E. Neuscamman,  
 C. M. Oana,  R. Olson,  B. Peters,  R. Peverati,  P. A. Pieniazek,  
 Y. M. Rhee,  J. Ritchie,  M. A. Rohrdanz,  E. Rosta,  N. J. Russ,  
 H. F. Schaefer III,  N. E. Schultz,  N. Shenvi,  A. C. Simmonett,  A. Sodt,  
 D. Stuck,  K. S. Thanthiriwatte,  V. Vanovschi,  Tao Wang,  A. Warshel,  
 C. F. Williams,  Q. Wu,  X. Xu,  W. Zhang

 Please cite Q-Chem as follows:
 Y. Shao et al., Mol. Phys. 113, 184-215 (2015)
 DOI: 10.1080/00268976.2014.952696

 Q-Chem 5.1.2 for Intel X86 EM64T Linux

 Parts of Q-Chem use Armadillo 8.300.2 (Tropical Shenanigans).
 http://arma.sourceforge.net/

 Q-Chem begins on Wed Jul 10 11:03:41 2019  

Host: 
0

     Scratch files written to /scratch/xuedong/qchem10900//
 Dec218 |scratch|qcdevops|jenkins|workspace|build_RNUM 6581   
Processing $rem in /home/qwang/software/qchem5.1.2/config/preferences.
 MEM_TOTAL  4000 
Core orbitals will be frozen
Input Ideriv = 1
Curr. Ideriv = -1
Max.  Ideriv = 1

Checking the input file for inconsistencies... 	...done.

--------------------------------------------------------------
User input:
--------------------------------------------------------------
$molecule
0 1
--
0 1
O     1.993924319     0.222020423    -0.365391964
H     2.143343877     1.158326366    -0.214403173
H     2.400388308    -0.198991600     0.395963117
--
0 1
Si    -1.710476829    -0.246674989     0.198468087
H    -3.156122022    -0.471925961     0.427844825
H    -1.372259451     1.103640389     0.693354517
H    -1.437528649    -0.351319178    -1.245387918
H    -0.957168814    -1.266148043     0.954347148
$end

$rem
BASIS = aug-cc-pVTZ
JOB_TYPE  =  BSSE
METHOD  =  MP2
SCF_CONVERGENCE  =  7
SCF_MAX_CYCLES  =  200
$end

--------------------------------------------------------------
 ----------------------------------------------------------------
             Standard Nuclear Orientation (Angstroms)
    I     Atom           X                Y                Z
 ----------------------------------------------------------------
    1      O       2.4114282393     0.0026375995    -0.1128324114
    2      H       2.6680064279     0.7444804299     0.4400052558
    3      H       2.6606043362    -0.7654139125     0.4069115687
    4      Si     -1.3631080955     0.0000029006     0.0014913718
    5      H      -2.8430536505    -0.0426038609     0.0359519345
    6      H      -0.9062097126     0.9309309120     1.0537613460
    7      H      -0.9330929911     0.4701412390    -1.3267511630
    8      H      -0.8541669873    -1.3586762121     0.2719011445
 ----------------------------------------------------------------
 Molecular Point Group                 C1    NOp =  1
 Largest Abelian Subgroup              C1    NOp =  1
 Nuclear Repulsion Energy =    55.1846286672 hartrees
 There are       14 alpha and       14 beta electrons
 Requested basis set is aug-cc-pVTZ
 There are 84 shells and 234 basis functions

 Total QAlloc Memory Limit   4000 MB
 Mega-Array Size       188 MB
 MEM_STATIC part       192 MB

                       Distance Matrix (Angstroms)
             O (  1)   H (  2)   H (  3)   Si(  4)   H (  5)   H (  6)
   H (  2)  0.960100
   H (  3)  0.960274  1.510275
   Si(  4)  3.776268  4.122672  4.115883
   H (  5)  5.256783  5.581626  5.563301  1.480960
   H (  6)  3.637223  3.631320  4.002270  1.477381  2.394801
   H (  7)  3.588590  4.020523  4.176942  1.473150  2.401628  2.424848
   H (  8)  3.558835  4.105756  3.567044  1.475856  2.396537  2.419982
             H (  7)
   H (  8)  2.430328
 
 A cutoff of  1.0D-10 yielded   3360 shell pairs
 There are     25884 function pairs (     33006 Cartesian)
 
 -------------------------------------------------------
 OpenMP Integral Computing Module                       
 Release: version 1.0, May 2013, Q-Chem Inc. Pittsburgh 
 -------------------------------------------------------
 Integral Job Info:
 Integral job number is                      11
 Integral operator is                         1
 short-range coefficients                     0
 long-range coefficients              100000000
 Omega coefficients                           0
 if combine SR and LR in K                    0
 Integral screening is                        0
 Integral computing path is                   2
 max size of driver memory is            800000
 size of driver memory is                776718
 size of scratch memory is             29531563
 max col of scratch BK array              10000
 max len of scratch array in speh3          662
 max len of scratch index in speh4           32
 max int batch size is                      520
 min int batch size is                       52
 fixed nKL is                                31
 max L of basis functions is                  3
 order of int derivative is                   0
 number of shells is                         84
 number of basis is                         264
 number of cartesian basis is               264
 number of contracted shell pairs          3360
 number of primitive shell pairs          10213
 maxK2 (contraction) of shell pair          169
 max number of K2 of shell pair               1
 max number of CS2 of shell pair            593
 max number of PS2 of shell pair           1014
 mem total for path MDJ                  589180
 -------------------------------------------------------
 Smallest overlap matrix eigenvalue = 1.47E-05

 Scale SEOQF with 1.000000e-01/1.000000e-01/1.000000e-01

 Standard Electronic Orientation quadrupole field applied
 Nucleus-field energy     =     0.0000000034 hartrees
 Guess MOs from converged MOs on fragments

-----------------------------------------------------------------
 SCF on fragment 1 out of 2
/home/qwang/software/qchem5.1.2/exe/qcprog.exe /scratch/xuedong/qchem10900/Frg1.input /scratch/xuedong/qchem10900/Frg1/ > /dev/null 
 SCF on fragment 2 out of 2
/home/qwang/software/qchem5.1.2/exe/qcprog.exe /scratch/xuedong/qchem10900/Frg2.input /scratch/xuedong/qchem10900/Frg2/ > /dev/null 
-----------------------------------------------------------------
 Done with SCF on isolated fragments
-----------------------------------------------------------------

 User-specified occupied guess orbitals will be used
 A restricted Hartree-Fock SCF calculation will be
 performed using Pulay DIIS extrapolation
 SCF converges when DIIS error is below 1.0E-07
 using 6 threads for integral computing
 -------------------------------------------------------
 OpenMP Integral computing Module                
 Release: version 1.0, May 2013, Q-Chem Inc. Pittsburgh 
 -------------------------------------------------------
 ---------------------------------------
  Cycle       Energy         DIIS Error
 ---------------------------------------
    1    -367.3215852609      1.67E-04
    2    -367.3219434368      3.15E-05
    3    -367.3219604104      8.34E-06
    4    -367.3219614942      3.84E-06
    5    -367.3219616177      9.87E-07
    6    -367.3219616319      1.85E-07
    7    -367.3219616325      4.77E-08 Convergence criterion met
 ---------------------------------------
 SCF time:  CPU 72.77 s  wall 12.17 s

-----------------------------------------------------------------
 SCF CP correction for fragment 1 out of 2
/home/qwang/software/qchem5.1.2/exe/qcprog.exe /scratch/xuedong/qchem10900/Frg1.input /scratch/xuedong/qchem10900/Frg1BSSE/ > /dev/null 
 SCF CP correction for fragment 2 out of 2
/home/qwang/software/qchem5.1.2/exe/qcprog.exe /scratch/xuedong/qchem10900/Frg2.input /scratch/xuedong/qchem10900/Frg2BSSE/ > /dev/null 
-----------------------------------------------------------------
 Done with counterpoise correction on fragments
-----------------------------------------------------------------

 SCF   energy in the final basis set = -367.32196163
 Total energy in the final basis set = -367.32196163
 
 Components of the MP2 correlation energy:
        aaaa  correlation energy =        -0.0401817467 au
        abab  correlation energy =        -0.3350630618 au
        bbbb  correlation energy =        -0.0401817467 au
        non-Brillouin singles    =        -0.0000000000 au

 Total  MP2   correlation energy =                    -0.41542656 au
        MP2         total energy =                  -367.73738819 au
 
 --------------------------------------------------------------
 
                    Orbital Energies (a.u.)
 --------------------------------------------------------------
 
 Alpha MOs
 -- Occupied --
-68.766 -20.572  -6.115  -4.221  -4.221  -4.221  -1.357  -0.723
 -0.719  -0.590  -0.516  -0.480  -0.480  -0.474
 -- Virtual --
  0.026   0.042   0.047   0.060   0.066   0.068   0.073   0.077
  0.099   0.130   0.147   0.151   0.159   0.165   0.166   0.177
  0.186   0.194   0.230   0.235   0.237   0.251   0.256   0.258
  0.261   0.287   0.292   0.299   0.311   0.314   0.328   0.330
  0.361   0.374   0.393   0.399   0.410   0.426   0.430   0.438
  0.440   0.458   0.467   0.521   0.523   0.526   0.556   0.576
  0.601   0.611   0.612   0.613   0.627   0.639   0.643   0.658
  0.667   0.668   0.671   0.682   0.758   0.772   0.803   0.824
  0.853   0.872   0.896   0.925   0.933   0.947   0.956   0.962
  0.964   0.974   0.981   0.984   0.996   1.019   1.035   1.052
  1.068   1.076   1.088   1.099   1.105   1.111   1.123   1.162
  1.185   1.191   1.201   1.205   1.214   1.220   1.256   1.271
  1.272   1.283   1.290   1.338   1.342   1.351   1.369   1.373
  1.391   1.397   1.404   1.408   1.425   1.441   1.481   1.495
  1.509   1.551   1.568   1.598   1.645   1.792   1.831   1.870
  1.912   1.913   1.971   1.982   1.997   2.007   2.015   2.022
  2.023   2.044   2.134   2.239   2.242   2.250   2.321   2.353
  2.399   2.445   2.469   2.480   2.551   2.685   2.762   2.797
  2.820   2.908   3.077   3.081   3.125   3.349   3.571   3.585
  3.621   3.707   3.783   3.961   3.973   3.987   3.991   3.999
  4.031   4.070   4.073   4.080   4.160   4.162   4.166   4.176
  4.236   4.250   4.270   4.274   4.279   4.281   4.297   4.304
  4.365   4.397   4.404   4.436   4.437   4.482   4.507   4.521
  4.572   4.574   4.585   4.759   4.760   4.767   4.837   4.850
  4.872   4.879   4.961   5.107   5.117   5.124   5.155   5.171
  5.254   5.340   5.537   5.705   6.217   6.523   6.716   6.914
  7.163   7.295   7.313   7.319   7.370   7.377   7.553   7.894
  7.933   8.774   8.819  15.841
 --------------------------------------------------------------
 
          Ground-State Mulliken Net Atomic Charges

     Atom                 Charge (a.u.)
  ----------------------------------------
      1 O                    -0.439897
      2 H                     0.221685
      3 H                     0.221459
      4 Si                    1.536529
      5 H                    -0.466969
      6 H                    -0.364356
      7 H                    -0.350238
      8 H                    -0.358212
  ----------------------------------------
  Sum of atomic charges =     0.000000

 -----------------------------------------------------------------
                    Cartesian Multipole Moments
 -----------------------------------------------------------------
    Charge (ESU x 10^10)
                 0.0000
    Dipole Moment (Debye)
         X       1.1634      Y      -0.0396      Z       1.6754
       Tot       2.0401
    Quadrupole Moments (Debye-Ang)
        XX     -20.4786     XY      -0.1137     YY     -21.1254
        XZ       5.0800     YZ       0.0280     ZZ     -23.2826
    Octopole Moments (Debye-Ang^2)
       XXX      35.0814    XXY      -0.1438    XYY      12.4361
       YYY       0.8512    XXZ      13.5310    XYZ       0.1190
       YYZ       0.4698    XZZ       6.6999    YZZ      -0.9855
       ZZZ       1.2398
    Hexadecapole Moments (Debye-Ang^3)
      XXXX    -463.3394   XXXY      -1.0766   XXYY     -68.9787
      XYYY      -1.5957   YYYY     -49.3354   XXXZ      39.5445
      XXYZ       0.3710   XYYZ       4.5331   YYYZ       0.0088
      XXZZ     -84.3922   XYZZ       1.5616   YYZZ     -16.4012
      XZZZ       2.1321   YZZZ      -0.0590   ZZZZ     -50.2786
 -----------------------------------------------------------------

 ---------------------------------------------------------------------
 *                     Fragment's binding energy                     *
 ---------------------------------------------------------------------
    Fragment           E(TOTAL)         E(CP-CORR)           DE(BSSE)
 ---------------------------------------------------------------------
           1     -76.3289848459     -76.3291575706       0.0001727247
           2    -291.4064822450    -291.4065970451       0.0001148001
     Complex    -367.7373881878
 ---------------------------------------------------------------------
  DE, kJ/mol      -5.0438998446      -4.2889944025
 ---------------------------------------------------------------------

Archival summary:
1\1\gm4.localdomain\SP\MP2\BasisUnspecified\i116\xuedong\WedJul1011:05:212019WedJul1011:05:212019\0\\#,MP2,BasisUnspecified,\\0,1\Si\H,1,1.47315\H,1,1.47586,2,110.998\H,1,1.47738,2,110.538,3,122.416,0\H,1,1.48096,2,108.776,3,-119.049,0\O,3,3.55884,1,86.8171,2,59.8987,0\H,6,0.9601,3,118.59,1,56.2484,0\H,6,0.960274,3,82.741,1,157.942,0\\HF=-367.321962\MP2=-367.737388\\@

 Total job time:  99.74s(wall), 207.19s(cpu) 
 Wed Jul 10 11:05:21 2019

        *************************************************************
        *                                                           *
        *  Thank you very much for using Q-Chem.  Have a nice day.  *
        *                                                           *
        *************************************************************


