
Running Job 1 of 1 ../qm_inp/SiH4_SiH4_con1.095.qcinp
qchem ../qm_inp/SiH4_SiH4_con1.095.qcinp_2097.0 /scratch/xuedong/qchem2097/ 1
/home/qwang/software/qchem5.1.2/exe/qcprog.exe_s ../qm_inp/SiH4_SiH4_con1.095.qcinp_2097.0 /scratch/xuedong/qchem2097/
Check license passed

                  Welcome to Q-Chem
     A Quantum Leap Into The Future Of Chemistry


 Q-Chem 5.1, Q-Chem, Inc., Pleasanton, CA (2018)

 Yihan Shao,  Zhengting Gan,  E. Epifanovsky,  A. T. B. Gilbert,  M. Wormit,  
 J. Kussmann,  A. W. Lange,  A. Behn,  Jia Deng,  Xintian Feng,  D. Ghosh,  
 M. Goldey,  P. R. Horn,  L. D. Jacobson,  I. Kaliman,  T. Kus,  A. Landau,  
 Jie Liu,  E. I. Proynov,  R. M. Richard,  R. P. Steele,  E. J. Sundstrom,  
 H. L. Woodcock III,  P. M. Zimmerman,  D. Zuev,  B. Albrecht,  E. Alguire,  
 S. A. Baeppler,  D. Barton,  Z. Benda,  Y. A. Bernard,  E. J. Berquist,  
 K. B. Bravaya,  H. Burton,  D. Casanova,  Chun-Min Chang,  Yunqing Chen,  
 A. Chien,  K. D. Closser,  M. P. Coons,  S. Coriani,  S. Dasgupta,  
 A. L. Dempwolff,  M. Diedenhofen,  Hainam Do,  R. G. Edgar,  Po-Tung Fang,  
 S. Faraji,  S. Fatehi,  Qingguo Feng,  K. D. Fenk,  J. Fosso-Tande,  
 J. Gayvert,  Qinghui Ge,  A. Ghysels,  G. Gidofalvi,  J. Gomes,  
 J. Gonthier,  A. Gunina,  D. Hait,  M. W. D. Hanson-Heine,  
 P. H. P. Harbach,  A. W. Hauser,  J. E. Herr,  E. G. Hohenstein,  
 Z. C. Holden,  Kerwin Hui,  B. C. Huynh,  T.-C. Jagau,  Hyunjun Ji,  
 B. Kaduk,  K. Khistyaev,  Jaehoon Kim,  P. Klunzinger,  K. Koh,  
 D. Kosenkov,  L. Koulias,  T. Kowalczyk,  C. M. Krauter,  A. Kunitsa,  
 Ka Un Lao,  A. Laurent,  K. V. Lawler,  Joonho Lee,  D. Lefrancois,  
 S. Lehtola,  D. S. Levine,  Yi-Pei Li,  You-Sheng Lin,  Fenglai Liu,  
 E. Livshits,  A. Luenser,  P. Manohar,  E. Mansoor,  S. F. Manzer,  
 Shan-Ping Mao,  Yuezhi Mao,  N. Mardirossian,  A. V. Marenich,  
 T. Markovich,  L. A. Martinez-Martinez,  S. A. Maurer,  N. J. Mayhall,  
 S. C. McKenzie,  J.-M. Mewes,  A. F. Morrison,  J. W. Mullinax,  K. Nanda,  
 T. S. Nguyen-Beck,  R. Olivares-Amaya,  J. A. Parkhill,  T. M. Perrine,  
 F. Plasser,  P. Pokhilko,  S. Prager,  A. Prociuk,  E. Ramos,  D. R. Rehn,  
 F. Rob,  M. Schneider,  N. Sergueev,  S. M. Sharada,  S. Sharma,  
 D. W. Small,  T. Stauch,  T. Stein,  Yu-Chuan Su,  A. J. W. Thom,  
 A. Tkatchenko,  T. Tsuchimochi,  N. M. Tubman,  L. Vogt,  M. L. Vidal,  
 O. Vydrov,  M. A. Watson,  J. Wenzel,  M. de Wergifosse,  T. A. Wesolowski,  
 A. White,  J. Witte,  A. Yamada,  Jun Yang,  K. Yao,  S. Yeganeh,  
 S. R. Yost,  Zhi-Qiang You,  A. Zech,  Igor Ying Zhang,  Xing Zhang,  
 Yan Zhao,  Ying Zhu,  B. R. Brooks,  G. K. L. Chan,  C. J. Cramer,  
 M. S. Gordon,  W. J. Hehre,  A. Klamt,  M. W. Schmidt,  C. D. Sherrill,  
 D. G. Truhlar,  A. Aspuru-Guzik,  R. Baer,  A. T. Bell,  N. A. Besley,  
 Jeng-Da Chai,  A. E. DePrince, III,  R. A. DiStasio Jr.,  A. Dreuw,  
 B. D. Dunietz,  T. R. Furlani,  Chao-Ping Hsu,  Yousung Jung,  Jing Kong,  
 D. S. Lambrecht,  WanZhen Liang,  C. Ochsenfeld,  V. A. Rassolov,  
 L. V. Slipchenko,  J. E. Subotnik,  T. Van Voorhis,  J. M. Herbert,  
 A. I. Krylov,  P. M. W. Gill,  M. Head-Gordon

 Contributors to earlier versions of Q-Chem not listed above: 
 R. D. Adamson,  B. Austin,  J. Baker,  G. J. O. Beran,  K. Brandhorst,  
 S. T. Brown,  E. F. C. Byrd,  A. K. Chakraborty,  C.-L. Cheng,  
 Siu Hung Chien,  D. M. Chipman,  D. L. Crittenden,  H. Dachsel,  
 R. J. Doerksen,  A. D. Dutoi,  L. Fusti-Molnar,  W. A. Goddard III,  
 A. Golubeva-Zadorozhnaya,  S. R. Gwaltney,  G. Hawkins,  A. Heyden,  
 S. Hirata,  G. Kedziora,  F. J. Keil,  C. Kelley,  Jihan Kim,  R. A. King,  
 R. Z. Khaliullin,  P. P. Korambath,  W. Kurlancheek,  A. M. Lee,  M. S. Lee,  
 S. V. Levchenko,  Ching Yeh Lin,  D. Liotard,  R. C. Lochan,  I. Lotan,  
 P. E. Maslen,  N. Nair,  D. P. O'Neill,  D. Neuhauser,  E. Neuscamman,  
 C. M. Oana,  R. Olson,  B. Peters,  R. Peverati,  P. A. Pieniazek,  
 Y. M. Rhee,  J. Ritchie,  M. A. Rohrdanz,  E. Rosta,  N. J. Russ,  
 H. F. Schaefer III,  N. E. Schultz,  N. Shenvi,  A. C. Simmonett,  A. Sodt,  
 D. Stuck,  K. S. Thanthiriwatte,  V. Vanovschi,  Tao Wang,  A. Warshel,  
 C. F. Williams,  Q. Wu,  X. Xu,  W. Zhang

 Please cite Q-Chem as follows:
 Y. Shao et al., Mol. Phys. 113, 184-215 (2015)
 DOI: 10.1080/00268976.2014.952696

 Q-Chem 5.1.2 for Intel X86 EM64T Linux

 Parts of Q-Chem use Armadillo 8.300.2 (Tropical Shenanigans).
 http://arma.sourceforge.net/

 Q-Chem begins on Wed Jun 12 19:09:27 2019  

Host: 
0

     Scratch files written to /scratch/xuedong/qchem2097//
 Dec218 |scratch|qcdevops|jenkins|workspace|build_RNUM 6581   
Processing $rem in /home/qwang/software/qchem5.1.2/config/preferences.
 MEM_TOTAL  4000 
Core orbitals will be frozen
Input Ideriv = 1
Curr. Ideriv = -1
Max.  Ideriv = 1

Checking the input file for inconsistencies... 	...done.

--------------------------------------------------------------
User input:
--------------------------------------------------------------
$molecule
0 1
--
0 1
Si    -2.355587420     0.000852678    -0.001125865
H    -2.728992107     0.287798069    -1.400983250
H    -2.856535997     1.078823011     0.875456972
H    -0.884338632    -0.075218668     0.107530826
H    -2.944965592    -1.288253407     0.413844090
--
0 1
Si     2.178327889    -0.000808713     0.001094306
H     1.621011455     0.252316292    -1.343482274
H     1.701099792     1.038884151     0.935908683
H     3.653968850     0.035278137    -0.063475948
H     1.738650383    -1.329287863     0.474761204
$end

$rem
BASIS = aug-cc-pVTZ
JOB_TYPE  =  BSSE
METHOD  =  MP2
SCF_CONVERGENCE  =  7
SCF_MAX_CYCLES  =  200
$end

--------------------------------------------------------------
 ----------------------------------------------------------------
             Standard Nuclear Orientation (Angstroms)
    I     Atom           X                Y                Z
 ----------------------------------------------------------------
    1      Si     -2.2672063020     0.0000230048    -0.0000376341
    2      H      -2.6413696992     0.2397003779    -1.4085566879
    3      H      -2.7681244720     1.1066356146     0.8401150334
    4      H      -0.7958798442    -0.0718619961     0.1104029539
    5      H      -2.8559335840    -1.2746291812     0.4582452301
    6      Si      2.2667098537    -0.0000316863     0.0000555831
    7      H       1.7086726596     0.2076375059    -1.3519902932
    8      H       1.7895530399     1.0702873238     0.8996801821
    9      H       3.7423074780     0.0343661805    -0.0663993793
   10      H       1.8277246981    -1.3120142838     0.5182516739
 ----------------------------------------------------------------
 Molecular Point Group                 C1    NOp =  1
 Largest Abelian Subgroup              C1    NOp =  1
 Nuclear Repulsion Energy =    80.6122703875 hartrees
 There are       18 alpha and       18 beta electrons
 Requested basis set is aug-cc-pVTZ
 There are 104 shells and 284 basis functions

 Total QAlloc Memory Limit   4000 MB
 Mega-Array Size       188 MB
 MEM_STATIC part       192 MB

                       Distance Matrix (Angstroms)
             Si(  1)   H (  2)   H (  3)   H (  4)   H (  5)   Si(  6)
   H (  2)  1.476946
   H (  3)  1.476945  2.413331
   H (  4)  1.477216  2.410424  2.410619
   H (  5)  1.476943  2.413334  2.413288  2.410698
   Si(  6)  4.533916  5.111840  5.223023  3.065419  5.298680
   H (  7)  4.204580  4.350528  5.065100  2.913674  5.129298  1.477349
   H (  8)  4.290950  5.064673  4.558212  2.934608  5.222456  1.477358
   H (  9)  6.009978  6.526476  6.660124  4.542872  6.747259  1.477494
   H ( 10)  4.331111  5.108152  5.203392  2.930464  4.684192  1.477340
             H (  7)   H (  8)   H (  9)
   H (  8)  2.412618
   H (  9)  2.412144  2.412404
   H ( 10)  2.412741  2.412945  2.412506
 
 A cutoff of  1.0D-10 yielded   5060 shell pairs
 There are     37530 function pairs (     47226 Cartesian)
 
 -------------------------------------------------------
 OpenMP Integral Computing Module                       
 Release: version 1.0, May 2013, Q-Chem Inc. Pittsburgh 
 -------------------------------------------------------
 Integral Job Info:
 Integral job number is                      11
 Integral operator is                         1
 short-range coefficients                     0
 long-range coefficients              100000000
 Omega coefficients                           0
 if combine SR and LR in K                    0
 Integral screening is                        0
 Integral computing path is                   2
 max size of driver memory is            800000
 size of driver memory is                776718
 size of scratch memory is             29531563
 max col of scratch BK array              10000
 max len of scratch array in speh3          662
 max len of scratch index in speh4           32
 max int batch size is                      520
 min int batch size is                       52
 fixed nKL is                                31
 max L of basis functions is                  3
 order of int derivative is                   0
 number of shells is                        104
 number of basis is                         318
 number of cartesian basis is               318
 number of contracted shell pairs          5060
 number of primitive shell pairs          16868
 maxK2 (contraction) of shell pair          169
 max number of K2 of shell pair               1
 max number of CS2 of shell pair            931
 max number of PS2 of shell pair           2028
 mem total for path MDJ                  630572
 -------------------------------------------------------
 Smallest overlap matrix eigenvalue = 1.18E-05

 Scale SEOQF with 1.000000e-01/1.000000e-01/1.000000e-01

 Standard Electronic Orientation quadrupole field applied
 Nucleus-field energy     =     0.0000000066 hartrees
 Guess MOs from converged MOs on fragments

-----------------------------------------------------------------
 SCF on fragment 1 out of 2
/home/qwang/software/qchem5.1.2/exe/qcprog.exe /scratch/xuedong/qchem2097/Frg1.input /scratch/xuedong/qchem2097/Frg1/ > /dev/null 
 SCF on fragment 2 out of 2
/home/qwang/software/qchem5.1.2/exe/qcprog.exe /scratch/xuedong/qchem2097/Frg2.input /scratch/xuedong/qchem2097/Frg2/ > /dev/null 
-----------------------------------------------------------------
 Done with SCF on isolated fragments
-----------------------------------------------------------------

 User-specified occupied guess orbitals will be used
 A restricted Hartree-Fock SCF calculation will be
 performed using Pulay DIIS extrapolation
 SCF converges when DIIS error is below 1.0E-07
 using 6 threads for integral computing
 -------------------------------------------------------
 OpenMP Integral computing Module                
 Release: version 1.0, May 2013, Q-Chem Inc. Pittsburgh 
 -------------------------------------------------------
 ---------------------------------------
  Cycle       Energy         DIIS Error
 ---------------------------------------
    1    -582.5202286654      1.66E-04
    2    -582.5207203068      2.70E-05
    3    -582.5207416201      4.68E-06
    4    -582.5207423567      9.45E-07
    5    -582.5207423802      2.28E-07
    6    -582.5207423820      4.07E-08 Convergence criterion met
 ---------------------------------------
 SCF time:  CPU 147.94 s  wall 24.68 s

-----------------------------------------------------------------
 SCF CP correction for fragment 1 out of 2
/home/qwang/software/qchem5.1.2/exe/qcprog.exe /scratch/xuedong/qchem2097/Frg1.input /scratch/xuedong/qchem2097/Frg1BSSE/ > /dev/null 
 SCF CP correction for fragment 2 out of 2
/home/qwang/software/qchem5.1.2/exe/qcprog.exe /scratch/xuedong/qchem2097/Frg2.input /scratch/xuedong/qchem2097/Frg2BSSE/ > /dev/null 
-----------------------------------------------------------------
 Done with counterpoise correction on fragments
-----------------------------------------------------------------

 SCF   energy in the final basis set = -582.52074238
 Total energy in the final basis set = -582.52074238
 
 Components of the MP2 correlation energy:
        aaaa  correlation energy =        -0.0151962356 au
        abab  correlation energy =        -0.2633725426 au
        bbbb  correlation energy =        -0.0151962356 au
        non-Brillouin singles    =        -0.0000000000 au

 Total  MP2   correlation energy =                    -0.29376501 au
        MP2         total energy =                  -582.81450740 au
 
 --------------------------------------------------------------
 
                    Orbital Energies (a.u.)
 --------------------------------------------------------------
 
 Alpha MOs
 -- Occupied --
-68.776 -68.773  -6.125  -6.122  -4.231  -4.231  -4.231  -4.228
 -4.228  -4.228  -0.736  -0.728  -0.499  -0.488  -0.488  -0.485
 -0.485  -0.475
 -- Virtual --
  0.030   0.040   0.052   0.053   0.055   0.062   0.062   0.070
  0.072   0.075   0.080   0.082   0.114   0.129   0.134   0.135
  0.143   0.149   0.159   0.160   0.161   0.162   0.179   0.186
  0.188   0.201   0.236   0.240   0.241   0.248   0.260   0.261
  0.265   0.266   0.270   0.287   0.289   0.296   0.301   0.315
  0.317   0.323   0.339   0.341   0.346   0.349   0.353   0.379
  0.390   0.394   0.412   0.418   0.422   0.423   0.441   0.462
  0.475   0.480   0.502   0.508   0.516   0.537   0.541   0.544
  0.556   0.588   0.591   0.603   0.607   0.608   0.613   0.615
  0.623   0.633   0.634   0.638   0.646   0.654   0.656   0.670
  0.671   0.676   0.683   0.687   0.747   0.752   0.768   0.796
  0.859   0.892   0.900   0.909   0.943   0.948   0.952   0.960
  0.969   0.973   0.983   0.984   0.987   0.999   1.011   1.021
  1.026   1.042   1.046   1.052   1.090   1.092   1.102   1.103
  1.105   1.124   1.125   1.151   1.184   1.193   1.199   1.200
  1.203   1.211   1.215   1.228   1.244   1.246   1.264   1.273
  1.281   1.289   1.292   1.298   1.322   1.334   1.342   1.345
  1.351   1.352   1.356   1.363   1.365   1.373   1.375   1.381
  1.389   1.391   1.433   1.451   1.457   1.459   1.465   1.472
  1.491   1.502   1.508   1.521   1.587   1.653   1.661   1.688
  1.731   1.805   1.905   1.907   1.926   1.928   1.987   1.989
  1.992   1.994   1.997   2.003   2.011   2.015   2.039   2.046
  2.059   2.084   2.091   2.119   2.231   2.232   2.241   2.241
  2.250   2.473   3.066   3.067   3.085   3.086   3.133   3.213
  3.309   3.355   3.576   3.580   3.608   3.639   3.661   3.673
  3.930   3.935   3.961   3.966   3.971   3.980   3.989   3.991
  4.021   4.036   4.063   4.064   4.065   4.094   4.109   4.123
  4.149   4.157   4.163   4.165   4.182   4.214   4.266   4.267
  4.268   4.273   4.276   4.277   4.289   4.290   4.294   4.305
  4.308   4.375   4.424   4.430   4.443   4.448   4.473   4.476
  4.566   4.571   4.572   4.579   4.613   4.620   4.757   4.761
  4.775   4.776   4.834   4.834   4.860   4.861   4.896   4.909
  4.961   5.011   5.095   5.096   5.123   5.126   5.143   5.184
  8.798   8.904
 --------------------------------------------------------------
 
          Ground-State Mulliken Net Atomic Charges

     Atom                 Charge (a.u.)
  ----------------------------------------
      1 Si                    1.684518
      2 H                    -0.411954
      3 H                    -0.423015
      4 H                    -0.377533
      5 H                    -0.428716
      6 Si                    1.697349
      7 H                    -0.360252
      8 H                    -0.362831
      9 H                    -0.651058
     10 H                    -0.366508
  ----------------------------------------
  Sum of atomic charges =    -0.000000

 -----------------------------------------------------------------
                    Cartesian Multipole Moments
 -----------------------------------------------------------------
    Charge (ESU x 10^10)
                 0.0000
    Dipole Moment (Debye)
         X      -0.1071      Y      -0.0015      Z       0.0013
       Tot       0.1071
    Quadrupole Moments (Debye-Ang)
        XX     -33.5903     XY      -0.0083     YY     -33.5017
        XZ       0.0143     YZ       0.0002     ZZ     -33.5002
    Octopole Moments (Debye-Ang^2)
       XXX      -4.8259    XXY       0.0808    XYY       1.5418
       YYY       0.9841    XXZ      -0.0711    XYZ       0.0088
       YYZ      -2.0413    XZZ       1.4291    YZZ      -1.0841
       ZZZ       2.1401
    Hexadecapole Moments (Debye-Ang^3)
      XXXX   -1120.9614   XXXY      -1.7010   XXYY    -201.4725
      XYYY       0.5167   YYYY     -85.3983   XXXZ       2.7472
      XXYZ      -0.0006   XYYZ      -0.4287   YYYZ       0.0095
      XXZZ    -199.9787   XYZZ       0.0130   YYZZ     -28.4652
      XZZZ      -0.4311   YZZZ      -0.0054   ZZZZ     -85.3662
 -----------------------------------------------------------------

 ---------------------------------------------------------------------
 *                     Fragment's binding energy                     *
 ---------------------------------------------------------------------
    Fragment           E(TOTAL)         E(CP-CORR)           DE(BSSE)
 ---------------------------------------------------------------------
           1    -291.4066296814    -291.4068405559       0.0002108745
           2    -291.4066314707    -291.4068729791       0.0002415084
     Complex    -582.8145073959
 ---------------------------------------------------------------------
  DE, kJ/mol      -3.2720518336      -2.0843065603
 ---------------------------------------------------------------------

Archival summary:
1\1\mm2.localdomain\SP\MP2\BasisUnspecified\i28\xuedong\WedJun1219:12:502019WedJun1219:12:502019\0\\#,MP2,BasisUnspecified,\\0,1\Si\H,1,1.47734\H,1,1.47735,2,109.488\H,1,1.47736,2,109.501,3,120.038,0\H,1,1.47749,2,109.464,3,-119.967,0\H,3,2.91367,1,81.4814,2,59.9227,0\Si,6,1.47722,3,144.485,1,174.713,0\H,7,1.47694,6,109.38,3,124.586,0\H,7,1.47695,6,109.374,3,-115.409,0\H,7,1.47695,6,109.361,3,4.5867,0\\HF=-582.520742\MP2=-582.814507\\@

 Total job time:  203.90s(wall), 419.35s(cpu) 
 Wed Jun 12 19:12:50 2019

        *************************************************************
        *                                                           *
        *  Thank you very much for using Q-Chem.  Have a nice day.  *
        *                                                           *
        *************************************************************


