
Running Job 1 of 2 18.freq.qcinp
qchem 18.freq.qcinp_758.0 /scratch/xuedong/qchem758/ 1
/home/qwang/software/qchem5.1/exe/qcprog.exe_s 18.freq.qcinp_758.0 /scratch/xuedong/qchem758/
Check license passed

                  Welcome to Q-Chem
     A Quantum Leap Into The Future Of Chemistry


 Q-Chem 5.1, Q-Chem, Inc., Pleasanton, CA (2018)

 Yihan Shao,  Zhengting Gan,  E. Epifanovsky,  A. T. B. Gilbert,  M. Wormit,  
 J. Kussmann,  A. W. Lange,  A. Behn,  Jia Deng,  Xintian Feng,  D. Ghosh,  
 M. Goldey,  P. R. Horn,  L. D. Jacobson,  I. Kaliman,  T. Kus,  A. Landau,  
 Jie Liu,  E. I. Proynov,  R. M. Richard,  R. P. Steele,  E. J. Sundstrom,  
 H. L. Woodcock III,  P. M. Zimmerman,  D. Zuev,  B. Albrecht,  E. Alguire,  
 S. A. Baeppler,  D. Barton,  Z. Benda,  Y. A. Bernard,  E. J. Berquist,  
 K. B. Bravaya,  H. Burton,  D. Casanova,  Chun-Min Chang,  Yunqing Chen,  
 A. Chien,  K. D. Closser,  M. P. Coons,  S. Coriani,  S. Dasgupta,  
 A. L. Dempwolff,  M. Diedenhofen,  Hainam Do,  R. G. Edgar,  Po-Tung Fang,  
 S. Faraji,  S. Fatehi,  Qingguo Feng,  K. D. Fenk,  J. Fosso-Tande,  
 Qinghui Ge,  A. Ghysels,  G. Gidofalvi,  J. Gomes,  J. Gonthier,  A. Gunina,  
 D. Hait,  M. W. D. Hanson-Heine,  P. H. P. Harbach,  A. W. Hauser,  
 J. E. Herr,  E. G. Hohenstein,  Z. C. Holden,  Kerwin Hui,  B. C. Huynh,  
 T.-C. Jagau,  Hyunjun Ji,  B. Kaduk,  K. Khistyaev,  Jaehoon Kim,  
 P. Klunzinger,  K. Koh,  D. Kosenkov,  L. Koulias,  T. Kowalczyk,  
 C. M. Krauter,  A. Kunitsa,  Ka Un Lao,  A. Laurent,  K. V. Lawler,  
 Joonho Lee,  D. Lefrancois,  S. Lehtola,  D. S. Levine,  Yi-Pei Li,  
 You-Sheng Lin,  Fenglai Liu,  E. Livshits,  A. Luenser,  P. Manohar,  
 E. Mansoor,  S. F. Manzer,  Shan-Ping Mao,  Yuezhi Mao,  N. Mardirossian,  
 A. V. Marenich,  T. Markovich,  L. A. Martinez-Martinez,  S. A. Maurer,  
 N. J. Mayhall,  S. C. McKenzie,  J.-M. Mewes,  A. F. Morrison,  
 J. W. Mullinax,  K. Nanda,  T. S. Nguyen-Beck,  R. Olivares-Amaya,  
 J. A. Parkhill,  T. M. Perrine,  F. Plasser,  P. Pokhilko,  S. Prager,  
 A. Prociuk,  E. Ramos,  D. R. Rehn,  F. Rob,  M. Schneider,  N. Sergueev,  
 S. M. Sharada,  S. Sharma,  D. W. Small,  T. Stauch,  T. Stein,  
 Yu-Chuan Su,  A. J. W. Thom,  A. Tkatchenko,  T. Tsuchimochi,  N. M. Tubman,  
 L. Vogt,  M. L. Vidal,  O. Vydrov,  M. A. Watson,  J. Wenzel,  
 M. de Wergifosse,  T. A. Wesolowski,  A. White,  J. Witte,  A. Yamada,  
 Jun Yang,  K. Yao,  S. Yeganeh,  S. R. Yost,  Zhi-Qiang You,  A. Zech,  
 Igor Ying Zhang,  Xing Zhang,  Yan Zhao,  Ying Zhu,  B. R. Brooks,  
 G. K. L. Chan,  C. J. Cramer,  M. S. Gordon,  W. J. Hehre,  A. Klamt,  
 M. W. Schmidt,  C. D. Sherrill,  D. G. Truhlar,  A. Aspuru-Guzik,  R. Baer,  
 A. T. Bell,  N. A. Besley,  Jeng-Da Chai,  R. A. DiStasio Jr.,  A. Dreuw,  
 B. D. Dunietz,  T. R. Furlani,  Chao-Ping Hsu,  Yousung Jung,  Jing Kong,  
 D. S. Lambrecht,  WanZhen Liang,  C. Ochsenfeld,  V. A. Rassolov,  
 L. V. Slipchenko,  J. E. Subotnik,  T. Van Voorhis,  J. M. Herbert,  
 A. I. Krylov,  P. M. W. Gill,  M. Head-Gordon

 Contributors to earlier versions of Q-Chem not listed above: 
 R. D. Adamson,  B. Austin,  J. Baker,  G. J. O. Beran,  K. Brandhorst,  
 S. T. Brown,  E. F. C. Byrd,  A. K. Chakraborty,  C.-L. Cheng,  
 Siu Hung Chien,  D. M. Chipman,  D. L. Crittenden,  H. Dachsel,  
 R. J. Doerksen,  A. D. Dutoi,  L. Fusti-Molnar,  W. A. Goddard III,  
 A. Golubeva-Zadorozhnaya,  S. R. Gwaltney,  G. Hawkins,  A. Heyden,  
 S. Hirata,  G. Kedziora,  F. J. Keil,  C. Kelley,  Jihan Kim,  R. A. King,  
 R. Z. Khaliullin,  P. P. Korambath,  W. Kurlancheek,  A. M. Lee,  M. S. Lee,  
 S. V. Levchenko,  Ching Yeh Lin,  D. Liotard,  R. C. Lochan,  I. Lotan,  
 P. E. Maslen,  N. Nair,  D. P. O'Neill,  D. Neuhauser,  E. Neuscamman,  
 C. M. Oana,  R. Olson,  B. Peters,  R. Peverati,  P. A. Pieniazek,  
 Y. M. Rhee,  J. Ritchie,  M. A. Rohrdanz,  E. Rosta,  N. J. Russ,  
 H. F. Schaefer III,  N. E. Schultz,  N. Shenvi,  A. C. Simmonett,  A. Sodt,  
 D. Stuck,  K. S. Thanthiriwatte,  V. Vanovschi,  Tao Wang,  A. Warshel,  
 C. F. Williams,  Q. Wu,  X. Xu,  W. Zhang

 Please cite Q-Chem as follows:
 Y. Shao et al., Mol. Phys. 113, 184-215 (2015)
 DOI: 10.1080/00268976.2014.952696

 Q-Chem 5.1.0 for Intel X86 EM64T Linux

 Parts of Q-Chem use Armadillo 8.300.2 (Tropical Shenanigans).
 http://arma.sourceforge.net/

 Q-Chem begins on Fri May 10 10:31:23 2019  

Host: 
0

     Scratch files written to /scratch/xuedong/qchem758//
 May118 |scratch|qcdevops|jenkins|workspace|build_RNUM 6581   
Processing $rem in /home/qwang/software/qchem5.1/config/preferences.
 MEM_TOTAL  2000 
Core orbitals will be frozen

Checking the input file for inconsistencies... 	...done.

--------------------------------------------------------------
User input:
--------------------------------------------------------------
$comment
optimize molecule at MP2/6-311G+(d,p)
$end

$molecule
0 1
Si      -0.000   0.000  -0.000
H      -0.432  -0.611   1.058
H      -0.432   1.222   0.000
H      -0.432  -0.611  -1.058
H       1.296  -0.000   0.000
$end

$rem
JOBTYPE  =  opt
METHOD  =  MP2
BASIS  =  6-311G+(d,p)
SCF_MAX_CYCLES  =  200
GEOM_OPT_MAX_CYCLES  =  300
GEOM_OPT_TOL_DISPLACEMENT = 120
GEOM_OPT_TOL_ENERGY = 10
GEOM_OPT_TOL_GRADIENT = 20
$end
--------------------------------------------------------------
 ----------------------------------------------------------------
             Standard Nuclear Orientation (Angstroms)
    I     Atom           X                Y                Z
 ----------------------------------------------------------------
    1      Si      0.0000000000     0.0000000000     0.0000000000
    2      H       0.6110000000    -0.4320000000     1.0580000000
    3      H      -1.2220000000    -0.4320000000     0.0000000000
    4      H       0.6110000000    -0.4320000000    -1.0580000000
    5      H      -0.0000000000     1.2960000000     0.0000000000
 ----------------------------------------------------------------
 Molecular Point Group                 Cs    NOp =  2
 Largest Abelian Subgroup              Cs    NOp =  2
 Nuclear Repulsion Energy =    24.3665139283 hartrees
 There are        9 alpha and        9 beta electrons
 Requested basis set is 6-311+G(d,p)
 There are 29 shells and 54 basis functions

 Total QAlloc Memory Limit   2000 MB
 Mega-Array Size       188 MB
 MEM_STATIC part       192 MB
 A cutoff of  1.0D-11 yielded    435 shell pairs
 There are      1528 function pairs (      1588 Cartesian)
 
 -------------------------------------------------------
 OpenMP Integral Computing Module                       
 Release: version 1.0, May 2013, Q-Chem Inc. Pittsburgh 
 -------------------------------------------------------
 Integral Job Info:
 Integral job number is                      11
 Integral operator is                         1
 short-range coefficients                     0
 long-range coefficients              100000000
 Omega coefficients                           0
 if combine SR and LR in K                    0
 Integral screening is                        0
 Integral computing path is                   2
 max size of driver memory is            800000
 size of driver memory is                593474
 size of scratch memory is              4204008
 max col of scratch BK array               1296
 max len of scratch array in speh3          155
 max len of scratch index in speh4           18
 max int batch size is                      520
 min int batch size is                       52
 fixed nKL is                                52
 max L of basis functions is                  2
 order of int derivative is                   0
 number of shells is                         29
 number of basis is                          55
 number of cartesian basis is                55
 number of contracted shell pairs           435
 number of primitive shell pairs           1101
 maxK2 (contraction) of shell pair           36
 max number of K2 of shell pair               1
 max number of CS2 of shell pair             84
 max number of PS2 of shell pair            180
 mem total for path MDJ                  508628
 -------------------------------------------------------
 Smallest overlap matrix eigenvalue = 5.59E-03

 Scale SEOQF with 1.000000e-01/1.000000e-01/1.000000e-01

 Standard Electronic Orientation quadrupole field applied
 Guess from superposition of atomic densities
 Warning:  Energy on first SCF cycle will be non-variational
 SAD guess density has 18.000000 electrons

 -----------------------------------------------------------------------
  General SCF calculation program by
  Eric Jon Sundstrom, Paul Horn, Yuezhi Mao, Dmitri Zuev, Alec White,
  David Stuck, Shaama M.S., Shane Yost, Joonho Lee, David Small,
  Daniel Levine, Susi Lehtola, Hugh Burton, Evgeny Epifanovsky
 -----------------------------------------------------------------------
 Hartree-Fock
 using 4 threads for integral computing
 -------------------------------------------------------
 OpenMP Integral computing Module                
 Release: version 1.0, May 2013, Q-Chem Inc. Pittsburgh 
 -------------------------------------------------------
 A restricted SCF calculation will be
 performed using DIIS
 SCF converges when DIIS error is below 1.0e-08
 ---------------------------------------
  Cycle       Energy         DIIS error
 ---------------------------------------
    1    -291.4101606065      8.34e-02  
    2    -291.1717439155      4.48e-03  
    3    -291.1872405937      1.24e-03  
    4    -291.1888819389      1.95e-04  
    5    -291.1889275546      3.35e-05  
    6    -291.1889287651      8.87e-06  
    7    -291.1889287981      9.99e-07  
    8    -291.1889287991      7.59e-08  
    9    -291.1889287991      5.11e-09  Convergence criterion met
 ---------------------------------------
 SCF time:   CPU 1.27s  wall 1.00s 
 SCF   energy in the final basis set =     -291.1889287991
 Total energy in the final basis set =     -291.1889287991
 
 Components of the MP2 correlation energy:
        aaaa  correlation energy =        -0.0063638586 au
        abab  correlation energy =        -0.1089947175 au
        bbbb  correlation energy =        -0.0063638586 au
        non-Brillouin singles    =        -0.0000000000 au

 Total  MP2   correlation energy =                    -0.12172243 au
        MP2         total energy =                  -291.31065123 au
  Entering Z-vector solver.
   1         0           1      0.000131    0.000131
   2         0           1      0.000022    0.000022
   3         0           1      0.000003    0.000003
   4         1           0      0.000000    0.000000    Roots Converged
 
 --------------------------------------------------------------
             Orbital Energies (a.u.) and Symmetries
 --------------------------------------------------------------
 
 Alpha MOs, Restricted
 -- Occupied --                  
-68.708  -6.077  -4.183  -4.183  -4.183  -0.776  -0.511  -0.511
  1 A'    2 A'    1 A"    3 A'    4 A'    5 A'    6 A'    2 A"                 
 -0.511
  7 A'                                                                         
 -- Virtual --                   
  0.069   0.077   0.077   0.077   0.176   0.176   0.176   0.306
  8 A'    3 A"    9 A'   10 A'   11 A'    4 A"   12 A'   13 A'                 
  0.370   0.370   0.370   0.535   0.535   0.535   0.537   0.743
  5 A"   14 A'   15 A'    6 A"   16 A'   17 A'   18 A'   19 A'                 
  0.743   0.784   1.228   1.228   1.228   1.408   1.408   1.408
  7 A"   20 A'   21 A'   22 A'    8 A"    9 A"   23 A'   24 A'                 
  1.536   1.536   1.536   1.927   1.927   1.927   2.115   2.115
 10 A"   25 A'   11 A"   12 A"   26 A'   27 A'   13 A"   28 A'                 
  2.299   2.688   2.688   2.689   2.968   2.968   2.968   3.145
 29 A'   30 A'   31 A'   14 A"   15 A"   32 A'   33 A'   34 A'                 
  6.133  12.545  12.545  12.545 144.006
 35 A'   36 A'   16 A"   37 A'   38 A'                                         
 
 Beta MOs, Restricted
 -- Occupied --                  
-68.708  -6.077  -4.183  -4.183  -4.183  -0.776  -0.511  -0.511
  1 A'    2 A'    1 A"    3 A'    4 A'    5 A'    6 A'    2 A"                 
 -0.511
  7 A'                                                                         
 -- Virtual --                   
  0.069   0.077   0.077   0.077   0.176   0.176   0.176   0.306
  8 A'    3 A"    9 A'   10 A'   11 A'    4 A"   12 A'   13 A'                 
  0.370   0.370   0.370   0.535   0.535   0.535   0.537   0.743
  5 A"   14 A'   15 A'    6 A"   16 A'   17 A'   18 A'   19 A'                 
  0.743   0.784   1.228   1.228   1.228   1.408   1.408   1.408
  7 A"   20 A'   21 A'   22 A'    8 A"    9 A"   23 A'   24 A'                 
  1.536   1.536   1.536   1.927   1.927   1.927   2.115   2.115
 10 A"   25 A'   11 A"   12 A"   26 A'   27 A'   13 A"   28 A'                 
  2.299   2.688   2.688   2.689   2.968   2.968   2.968   3.145
 29 A'   30 A'   31 A'   14 A"   15 A"   32 A'   33 A'   34 A'                 
  6.133  12.545  12.545  12.545 144.006
 35 A'   36 A'   16 A"   37 A'   38 A'                                         
 --------------------------------------------------------------
 
          Ground-State Mulliken Net Atomic Charges

     Atom                 Charge (a.u.)
  ----------------------------------------
      1 Si                    0.765179
      2 H                    -0.191301
      3 H                    -0.191284
      4 H                    -0.191301
      5 H                    -0.191292
  ----------------------------------------
  Sum of atomic charges =    -0.000000

 -----------------------------------------------------------------
                    Cartesian Multipole Moments
 -----------------------------------------------------------------
    Charge (ESU x 10^10)
                 0.0000
    Dipole Moment (Debye)
         X      -0.0000      Y       0.0000      Z      -0.0000
       Tot       0.0000
    Quadrupole Moments (Debye-Ang)
        XX     -15.8344     XY      -0.0000     YY     -15.8342
        XZ       0.0000     YZ       0.0000     ZZ     -15.8340
    Octopole Moments (Debye-Ang^2)
       XXX       1.3661    XXY       0.9652    XYY       0.0003
       YYY      -1.9307    XXZ      -0.0000    XYZ      -0.0000
       YYZ      -0.0000    XZZ      -1.3648    YZZ       0.9652
       ZZZ      -0.0000
    Hexadecapole Moments (Debye-Ang^3)
      XXXX     -35.1665   XXXY      -0.2439   XXYY     -11.5495
      XYYY      -0.0004   YYYY     -35.3354   XXXZ       0.0000
      XXYZ       0.0000   XYYZ      -0.0000   YYYZ       0.0000
      XXZZ     -11.7207   XYZZ       0.2434   YYZZ     -11.5479
      XZZZ      -0.0000   YZZZ       0.0000   ZZZZ     -35.1571
 -----------------------------------------------------------------
 DrvMan is completing analytic gradient of the MP2 energy
 MP2 relaxed dipole moment
            1
    1  -0.0000026
    2   0.0000005
    3  -0.0000000
	Magnitude:	 0.000 au	 0.000 Debye
 MP2 energy read as -291.310651
 Full Analytical Gradient of MP2 Energy (in au.)
             1             2             3             4             5
    1    0.00017010   -0.04895094    0.09773160   -0.04895094    0.00000018
    2   -0.00003236    0.03461486    0.03455447    0.03461486   -0.10375183
    3    0.00000000   -0.08479404    0.00000000    0.08479404    0.00000000
 Gradient time:  CPU 0.09 s  wall 0.09 s
 Geometry Optimization Parameters
   NAtoms,    NIC,     NZ,  NCons,   NDum,   NFix, NCnnct, MaxDiis
        5      20       0       0       0       0       0       0


** GEOMETRY OPTIMIZATION IN DELOCALIZED INTERNAL COORDINATES **
   Searching for a Minimum

   Optimization Cycle:   1

                       Coordinates (Angstroms)
     ATOM                X               Y               Z
      1  Si        0.0000000000    0.0000000000    0.0000000000
      2  H         0.6110000000   -0.4320000000    1.0580000000
      3  H        -1.2220000000   -0.4320000000    0.0000000000
      4  H         0.6110000000   -0.4320000000   -1.0580000000
      5  H         0.0000000000    1.2960000000    0.0000000000
   Point Group: cs    Number of degrees of freedom:     6


   Energy is   -291.310651234


 Attempting to Generate Delocalized Internal Coordinates

  6 Hessian modes will be used to form the next step
  Hessian Eigenvalues:
     0.160000    0.160000    0.160000    0.302692    0.302800    0.302914

 Minimum Search - Taking Simple RFO Step
 Searching for Lamda that Minimizes Along All modes
 Value Taken    Lamda =  -0.10550052
 Calculated Step too Large.  Step scaled by  0.590203
 Step Taken.  Stepsize is  0.300000

                             Maximum     Tolerance    Cnvgd?
         Gradient           0.207554      0.000020      NO
         Displacement       0.300000      0.000120      NO
         Energy change     *********      0.000000      NO


 New Cartesian Coordinates Obtained by Inverse Iteration

 Displacement from previous Coordinates is:  0.300000
 ----------------------------------------------------------------
             Standard Nuclear Orientation (Angstroms)
    I     Atom           X                Y                Z
 ----------------------------------------------------------------
    1      Si     -0.0000034431     0.0000006524     0.0000000000
    2      H       0.6483997067    -0.4584623832     1.1228643484
    3      H      -1.2967807262    -0.4584396098     0.0000000000
    4      H       0.6483997067    -0.4584623832    -1.1228643484
    5      H      -0.0000152441     1.3753637238     0.0000000000
 ----------------------------------------------------------------
 Molecular Point Group                 Cs    NOp =  2
 Largest Abelian Subgroup              Cs    NOp =  2
 Nuclear Repulsion Energy =    22.9602270302 hartrees
 There are        9 alpha and        9 beta electrons
 Applying Cartesian multipole field
    Component          Value
    ---------          -----
     (2,0,0)        1.00000E-11
     (0,2,0)        2.00000E-11
     (0,0,2)       -3.00000E-11
 Requested basis set is 6-311+G(d,p)
 There are 29 shells and 54 basis functions
 A cutoff of  1.0D-11 yielded    435 shell pairs
 There are      1528 function pairs (      1588 Cartesian)
 Smallest overlap matrix eigenvalue = 7.43E-03
 Guess MOs from SCF MO coefficient file
 Reading MOs from coefficient file
 Reading MOs from coefficient file

 -----------------------------------------------------------------------
  General SCF calculation program by
  Eric Jon Sundstrom, Paul Horn, Yuezhi Mao, Dmitri Zuev, Alec White,
  David Stuck, Shaama M.S., Shane Yost, Joonho Lee, David Small,
  Daniel Levine, Susi Lehtola, Hugh Burton, Evgeny Epifanovsky
 -----------------------------------------------------------------------
 Hartree-Fock
 using 4 threads for integral computing
 -------------------------------------------------------
 OpenMP Integral computing Module                
 Release: version 1.0, May 2013, Q-Chem Inc. Pittsburgh 
 -------------------------------------------------------
 A restricted SCF calculation will be
 performed using DIIS
 SCF converges when DIIS error is below 1.0e-08
 ---------------------------------------
  Cycle       Energy         DIIS error
 ---------------------------------------
    1    -291.1691323245      9.59e-03  
    2    -291.2349621209      7.87e-04  
    3    -291.2351682474      1.23e-04  
    4    -291.2351758032      2.82e-05  
    5    -291.2351766580      5.16e-06  
    6    -291.2351766857      9.75e-07  
    7    -291.2351766866      2.20e-07  
    8    -291.2351766866      1.70e-08  
    9    -291.2351766866      1.44e-09  Convergence criterion met
 ---------------------------------------
 SCF time:   CPU 1.33s  wall 0.00s 
 SCF   energy in the final basis set =     -291.2351766866
 Total energy in the final basis set =     -291.2351766866
 
 Components of the MP2 correlation energy:
        aaaa  correlation energy =        -0.0061126448 au
        abab  correlation energy =        -0.1079250841 au
        bbbb  correlation energy =        -0.0061126448 au
        non-Brillouin singles    =        -0.0000000000 au

 Total  MP2   correlation energy =                    -0.12015037 au
        MP2         total energy =                  -291.35532706 au
  Entering Z-vector solver.
   1         0           1      0.000141    0.000141
   2         0           1      0.000025    0.000025
   3         0           1      0.000004    0.000004
   4         1           0      0.000000    0.000000    Roots Converged
 
 --------------------------------------------------------------
             Orbital Energies (a.u.) and Symmetries
 --------------------------------------------------------------
 
 Alpha MOs, Restricted
 -- Occupied --                  
-68.739  -6.097  -4.203  -4.203  -4.203  -0.756  -0.501  -0.501
  1 A'    2 A'    1 A"    3 A'    4 A'    5 A'    6 A'    2 A"                 
 -0.501
  7 A'                                                                         
 -- Virtual --                   
  0.069   0.077   0.078   0.078   0.168   0.168   0.168   0.287
  8 A'    3 A"    9 A'   10 A'   11 A'    4 A"   12 A'   13 A'                 
  0.370   0.370   0.370   0.527   0.527   0.527   0.534   0.729
  5 A"   14 A'   15 A'    6 A"   16 A'   17 A'   18 A'   19 A'                 
  0.741   0.741   1.167   1.167   1.167   1.419   1.419   1.419
 20 A'    7 A"   21 A'   22 A'    8 A"    9 A"   23 A'   24 A'                 
  1.530   1.530   1.530   1.884   1.884   1.884   2.012   2.012
 10 A"   25 A'   11 A"   12 A"   26 A'   27 A'   13 A"   28 A'                 
  2.211   2.560   2.560   2.560   2.941   2.941   2.941   3.087
 29 A'   30 A'   31 A'   14 A"   15 A"   32 A'   33 A'   34 A'                 
  6.130  12.440  12.440  12.440 143.969
 35 A'   36 A'   16 A"   37 A'   38 A'                                         
 
 Beta MOs, Restricted
 -- Occupied --                  
-68.739  -6.097  -4.203  -4.203  -4.203  -0.756  -0.501  -0.501
  1 A'    2 A'    1 A"    3 A'    4 A'    5 A'    6 A'    2 A"                 
 -0.501
  7 A'                                                                         
 -- Virtual --                   
  0.069   0.077   0.078   0.078   0.168   0.168   0.168   0.287
  8 A'    3 A"    9 A'   10 A'   11 A'    4 A"   12 A'   13 A'                 
  0.370   0.370   0.370   0.527   0.527   0.527   0.534   0.729
  5 A"   14 A'   15 A'    6 A"   16 A'   17 A'   18 A'   19 A'                 
  0.741   0.741   1.167   1.167   1.167   1.419   1.419   1.419
 20 A'    7 A"   21 A'   22 A'    8 A"    9 A"   23 A'   24 A'                 
  1.530   1.530   1.530   1.884   1.884   1.884   2.012   2.012
 10 A"   25 A'   11 A"   12 A"   26 A'   27 A'   13 A"   28 A'                 
  2.211   2.560   2.560   2.560   2.941   2.941   2.941   3.087
 29 A'   30 A'   31 A'   14 A"   15 A"   32 A'   33 A'   34 A'                 
  6.130  12.440  12.440  12.440 143.969
 35 A'   36 A'   16 A"   37 A'   38 A'                                         
 --------------------------------------------------------------
 
          Ground-State Mulliken Net Atomic Charges

     Atom                 Charge (a.u.)
  ----------------------------------------
      1 Si                    0.711114
      2 H                    -0.177781
      3 H                    -0.177775
      4 H                    -0.177781
      5 H                    -0.177778
  ----------------------------------------
  Sum of atomic charges =     0.000000

 -----------------------------------------------------------------
                    Cartesian Multipole Moments
 -----------------------------------------------------------------
    Charge (ESU x 10^10)
                 0.0000
    Dipole Moment (Debye)
         X      -0.0000      Y       0.0000      Z      -0.0000
       Tot       0.0000
    Quadrupole Moments (Debye-Ang)
        XX     -16.2437     XY       0.0000     YY     -16.2436
        XZ      -0.0000     YZ      -0.0000     ZZ     -16.2435
    Octopole Moments (Debye-Ang^2)
       XXX       1.3484    XXY       0.9529    XYY       0.0002
       YYY      -1.9061    XXZ      -0.0000    XYZ       0.0000
       YYZ      -0.0000    XZZ      -1.3475    YZZ       0.9529
       ZZZ      -0.0000
    Hexadecapole Moments (Debye-Ang^3)
      XXXX     -38.5845   XXXY      -0.2153   XXYY     -12.7089
      XYYY      -0.0001   YYYY     -38.7344   XXXZ      -0.0000
      XXYZ       0.0000   XYYZ      -0.0000   YYYZ      -0.0000
      XXZZ     -12.8605   XYZZ       0.2153   YYZZ     -12.7078
      XZZZ      -0.0000   YZZZ       0.0000   ZZZZ     -38.5780
 -----------------------------------------------------------------
 DrvMan is completing analytic gradient of the MP2 energy
 MP2 relaxed dipole moment
            1
    1  -0.0000043
    2   0.0000008
    3  -0.0000000
	Magnitude:	 0.000 au	 0.000 Debye
 MP2 energy read as -291.355327
 Full Analytical Gradient of MP2 Energy (in au.)
             1             2             3             4             5
    1    0.00006398   -0.02271072    0.04535803   -0.02271072   -0.00000058
    2   -0.00001217    0.01606049    0.01603868    0.01606049   -0.04814749
    3   -0.00000000   -0.03934773   -0.00000000    0.03934773   -0.00000000
 Gradient time:  CPU 0.09 s  wall 0.09 s
 Geometry Optimization Parameters
   NAtoms,    NIC,     NZ,  NCons,   NDum,   NFix, NCnnct, MaxDiis
        5      20       0       0       0       0       0       0

 Cartesian Hessian Update
 Hessian Updated using BFGS Update


** GEOMETRY OPTIMIZATION IN DELOCALIZED INTERNAL COORDINATES **
   Searching for a Minimum

   Optimization Cycle:   2

                       Coordinates (Angstroms)
     ATOM                X               Y               Z
      1  Si       -0.0000034431    0.0000006524    0.0000000000
      2  H         0.6483997067   -0.4584623832    1.1228643484
      3  H        -1.2967807262   -0.4584396098    0.0000000000
      4  H         0.6483997067   -0.4584623832   -1.1228643484
      5  H        -0.0000152441    1.3753637238    0.0000000000
   Point Group: cs    Number of degrees of freedom:     6


   Energy is   -291.355327060

 Hessian Updated using BFGS Update

  5 Hessian modes will be used to form the next step
  Hessian Eigenvalues:
     0.160000    0.160000    0.302731    0.302845    0.370796

 Minimum Search - Taking Simple RFO Step
 Searching for Lamda that Minimizes Along All modes
 Value Taken    Lamda =  -0.02352541
 Step Taken.  Stepsize is  0.244257

                             Maximum     Tolerance    Cnvgd?
         Gradient           0.096316      0.000020      NO
         Displacement       0.244257      0.000120      NO
         Energy change     -0.044676      0.000000      NO


 New Cartesian Coordinates Obtained by Inverse Iteration

 Displacement from previous Coordinates is:  0.244257
 ----------------------------------------------------------------
             Standard Nuclear Orientation (Angstroms)
    I     Atom           X                Y                Z
 ----------------------------------------------------------------
    1      Si      0.0000091617    -0.0000017438     0.0000000000
    2      H       0.6788292938    -0.4799947948     1.1756904947
    3      H      -1.3576623740    -0.4799904341     0.0000000000
    4      H       0.6788292938    -0.4799947948    -1.1756904947
    5      H      -0.0000053754     1.4399817675     0.0000000000
 ----------------------------------------------------------------
 Molecular Point Group                 Cs    NOp =  2
 Largest Abelian Subgroup              Cs    NOp =  2
 Nuclear Repulsion Energy =    21.9297464758 hartrees
 There are        9 alpha and        9 beta electrons
 Applying Cartesian multipole field
    Component          Value
    ---------          -----
     (2,0,0)        1.00000E-11
     (0,2,0)        2.00000E-11
     (0,0,2)       -3.00000E-11
 Requested basis set is 6-311+G(d,p)
 There are 29 shells and 54 basis functions
 A cutoff of  1.0D-11 yielded    435 shell pairs
 There are      1528 function pairs (      1588 Cartesian)
 Smallest overlap matrix eigenvalue = 9.13E-03
 Guess MOs from SCF MO coefficient file
 Reading MOs from coefficient file
 Reading MOs from coefficient file

 -----------------------------------------------------------------------
  General SCF calculation program by
  Eric Jon Sundstrom, Paul Horn, Yuezhi Mao, Dmitri Zuev, Alec White,
  David Stuck, Shaama M.S., Shane Yost, Joonho Lee, David Small,
  Daniel Levine, Susi Lehtola, Hugh Burton, Evgeny Epifanovsky
 -----------------------------------------------------------------------
 Hartree-Fock
 using 4 threads for integral computing
 -------------------------------------------------------
 OpenMP Integral computing Module                
 Release: version 1.0, May 2013, Q-Chem Inc. Pittsburgh 
 -------------------------------------------------------
 A restricted SCF calculation will be
 performed using DIIS
 SCF converges when DIIS error is below 1.0e-08
 ---------------------------------------
  Cycle       Energy         DIIS error
 ---------------------------------------
    1    -291.1912651852      6.44e-03  
    2    -291.2508554967      6.06e-04  
    3    -291.2510292016      8.61e-05  
    4    -291.2510346429      2.16e-05  
    5    -291.2510350931      4.94e-06  
    6    -291.2510351093      1.24e-06  
    7    -291.2510351105      1.82e-07  
    8    -291.2510351106      1.74e-08  
    9    -291.2510351106      1.49e-09  Convergence criterion met
 ---------------------------------------
 SCF time:   CPU 1.32s  wall 0.00s 
 SCF   energy in the final basis set =     -291.2510351106
 Total energy in the final basis set =     -291.2510351106
 
 Components of the MP2 correlation energy:
        aaaa  correlation energy =        -0.0059527290 au
        abab  correlation energy =        -0.1073339543 au
        bbbb  correlation energy =        -0.0059527290 au
        non-Brillouin singles    =        -0.0000000000 au

 Total  MP2   correlation energy =                    -0.11923941 au
        MP2         total energy =                  -291.37027452 au
  Entering Z-vector solver.
   1         0           1      0.000148    0.000148
   2         0           1      0.000028    0.000028
   3         0           1      0.000004    0.000004
   4         1           0      0.000000    0.000000    Roots Converged
 
 --------------------------------------------------------------
             Orbital Energies (a.u.) and Symmetries
 --------------------------------------------------------------
 
 Alpha MOs, Restricted
 -- Occupied --                  
-68.763  -6.114  -4.220  -4.220  -4.220  -0.741  -0.492  -0.492
  1 A'    2 A'    1 A"    3 A'    4 A'    5 A'    6 A'    2 A"                 
 -0.492
  7 A'                                                                         
 -- Virtual --                   
  0.069   0.078   0.078   0.078   0.162   0.162   0.162   0.269
  8 A'    3 A"    9 A'   10 A'   11 A'    4 A"   12 A'   13 A'                 
  0.370   0.370   0.370   0.521   0.521   0.521   0.532   0.690
  5 A"   14 A'   15 A'   16 A'    6 A"   17 A'   18 A'   19 A'                 
  0.740   0.740   1.118   1.118   1.118   1.428   1.428   1.428
 20 A'    7 A"   21 A'   22 A'    8 A"    9 A"   23 A'   24 A'                 
  1.529   1.529   1.529   1.851   1.851   1.851   1.938   1.938
 10 A"   11 A"   25 A'   12 A"   26 A'   27 A'   13 A"   28 A'                 
  2.139   2.465   2.465   2.465   2.918   2.918   2.919   3.036
 29 A'   30 A'   31 A'   14 A"   32 A'   15 A"   33 A'   34 A'                 
  6.110  12.360  12.360  12.360 143.919
 35 A'   36 A'   37 A'   16 A"   38 A'                                         
 
 Beta MOs, Restricted
 -- Occupied --                  
-68.763  -6.114  -4.220  -4.220  -4.220  -0.741  -0.492  -0.492
  1 A'    2 A'    1 A"    3 A'    4 A'    5 A'    6 A'    2 A"                 
 -0.492
  7 A'                                                                         
 -- Virtual --                   
  0.069   0.078   0.078   0.078   0.162   0.162   0.162   0.269
  8 A'    3 A"    9 A'   10 A'   11 A'    4 A"   12 A'   13 A'                 
  0.370   0.370   0.370   0.521   0.521   0.521   0.532   0.690
  5 A"   14 A'   15 A'   16 A'    6 A"   17 A'   18 A'   19 A'                 
  0.740   0.740   1.118   1.118   1.118   1.428   1.428   1.428
 20 A'    7 A"   21 A'   22 A'    8 A"    9 A"   23 A'   24 A'                 
  1.529   1.529   1.529   1.851   1.851   1.851   1.938   1.938
 10 A"   11 A"   25 A'   12 A"   26 A'   27 A'   13 A"   28 A'                 
  2.139   2.465   2.465   2.465   2.918   2.918   2.919   3.036
 29 A'   30 A'   31 A'   14 A"   32 A'   15 A"   33 A'   34 A'                 
  6.110  12.360  12.360  12.360 143.919
 35 A'   36 A'   37 A'   16 A"   38 A'                                         
 --------------------------------------------------------------
 
          Ground-State Mulliken Net Atomic Charges

     Atom                 Charge (a.u.)
  ----------------------------------------
      1 Si                    0.673126
      2 H                    -0.168282
      3 H                    -0.168281
      4 H                    -0.168282
      5 H                    -0.168281
  ----------------------------------------
  Sum of atomic charges =    -0.000000

 -----------------------------------------------------------------
                    Cartesian Multipole Moments
 -----------------------------------------------------------------
    Charge (ESU x 10^10)
                 0.0000
    Dipole Moment (Debye)
         X       0.0001      Y      -0.0000      Z       0.0000
       Tot       0.0001
    Quadrupole Moments (Debye-Ang)
        XX     -16.5790     XY      -0.0000     YY     -16.5790
        XZ       0.0000     YZ      -0.0000     ZZ     -16.5789
    Octopole Moments (Debye-Ang^2)
       XXX       1.3242    XXY       0.9362    XYY       0.0000
       YYY      -1.8725    XXZ       0.0000    XYZ      -0.0000
       YYZ       0.0000    XZZ      -1.3240    YZZ       0.9362
       ZZZ       0.0000
    Hexadecapole Moments (Debye-Ang^3)
      XXXX     -41.5589   XXXY      -0.1824   XXYY     -13.7239
      XYYY      -0.0002   YYYY     -41.6867   XXXZ       0.0000
      XXYZ      -0.0000   XYYZ       0.0000   YYYZ      -0.0000
      XXZZ     -13.8525   XYZZ       0.1823   YYZZ     -13.7233
      XZZZ       0.0000   YZZZ      -0.0000   ZZZZ     -41.5556
 -----------------------------------------------------------------
 DrvMan is completing analytic gradient of the MP2 energy
 MP2 relaxed dipole moment
            1
    1   0.0000277
    2  -0.0000053
    3   0.0000000
	Magnitude:	 0.000 au	 0.000 Debye
 MP2 energy read as -291.370275
 Full Analytical Gradient of MP2 Energy (in au.)
             1             2             3             4             5
    1    0.00002924   -0.00686406    0.01369953   -0.00686406   -0.00000066
    2   -0.00000556    0.00485417    0.00484476    0.00485417   -0.01454754
    3   -0.00000000   -0.01189371   -0.00000000    0.01189371    0.00000000
 Gradient time:  CPU 0.09 s  wall 0.09 s
 Geometry Optimization Parameters
   NAtoms,    NIC,     NZ,  NCons,   NDum,   NFix, NCnnct, MaxDiis
        5      20       0       0       0       0       0       0

 Cartesian Hessian Update
 Hessian Updated using BFGS Update


** GEOMETRY OPTIMIZATION IN DELOCALIZED INTERNAL COORDINATES **
   Searching for a Minimum

   Optimization Cycle:   3

                       Coordinates (Angstroms)
     ATOM                X               Y               Z
      1  Si        0.0000091617   -0.0000017438    0.0000000000
      2  H         0.6788292938   -0.4799947948    1.1756904947
      3  H        -1.3576623740   -0.4799904341    0.0000000000
      4  H         0.6788292938   -0.4799947948   -1.1756904947
      5  H        -0.0000053754    1.4399817675    0.0000000000
   Point Group: cs    Number of degrees of freedom:     6


   Energy is   -291.370274523

 Hessian Updated using BFGS Update

  5 Hessian modes will be used to form the next step
  Hessian Eigenvalues:
     0.160000    0.160000    0.275166    0.302731    0.302845

 Minimum Search - Taking Simple RFO Step
 Searching for Lamda that Minimizes Along All modes
 Value Taken    Lamda =  -0.00304429
 Step Taken.  Stepsize is  0.104612

                             Maximum     Tolerance    Cnvgd?
         Gradient           0.029104      0.000020      NO
         Displacement       0.104612      0.000120      NO
         Energy change     -0.014947      0.000000      NO


 New Cartesian Coordinates Obtained by Inverse Iteration

 Displacement from previous Coordinates is:  0.104612
 ----------------------------------------------------------------
             Standard Nuclear Orientation (Angstroms)
    I     Atom           X                Y                Z
 ----------------------------------------------------------------
    1      Si      0.0000076500    -0.0000014551     0.0000000000
    2      H       0.6918596392    -0.4892170865     1.1983245134
    3      H      -1.3837262944    -0.4892188967     0.0000000000
    4      H       0.6918596392    -0.4892170865    -1.1983245134
    5      H      -0.0000006339     1.4676545247     0.0000000000
 ----------------------------------------------------------------
 Molecular Point Group                 Cs    NOp =  2
 Largest Abelian Subgroup              Cs    NOp =  2
 Nuclear Repulsion Energy =    21.5161624986 hartrees
 There are        9 alpha and        9 beta electrons
 Applying Cartesian multipole field
    Component          Value
    ---------          -----
     (2,0,0)        1.00000E-11
     (0,2,0)        2.00000E-11
     (0,0,2)       -3.00000E-11
 Requested basis set is 6-311+G(d,p)
 There are 29 shells and 54 basis functions
 A cutoff of  1.0D-11 yielded    435 shell pairs
 There are      1528 function pairs (      1588 Cartesian)
 Smallest overlap matrix eigenvalue = 9.91E-03
 Guess MOs from SCF MO coefficient file
 Reading MOs from coefficient file
 Reading MOs from coefficient file

 -----------------------------------------------------------------------
  General SCF calculation program by
  Eric Jon Sundstrom, Paul Horn, Yuezhi Mao, Dmitri Zuev, Alec White,
  David Stuck, Shaama M.S., Shane Yost, Joonho Lee, David Small,
  Daniel Levine, Susi Lehtola, Hugh Burton, Evgeny Epifanovsky
 -----------------------------------------------------------------------
 Hartree-Fock
 using 4 threads for integral computing
 -------------------------------------------------------
 OpenMP Integral computing Module                
 Release: version 1.0, May 2013, Q-Chem Inc. Pittsburgh 
 -------------------------------------------------------
 A restricted SCF calculation will be
 performed using DIIS
 SCF converges when DIIS error is below 1.0e-08
 ---------------------------------------
  Cycle       Energy         DIIS error
 ---------------------------------------
    1    -291.2262553477      2.45e-03  
    2    -291.2530618193      2.57e-04  
    3    -291.2530980742      3.83e-05  
    4    -291.2530991570      1.05e-05  
    5    -291.2530992344      2.96e-06  
    6    -291.2530992400      5.23e-07  
    7    -291.2530992403      8.04e-08  
    8    -291.2530992403      8.06e-09  Convergence criterion met
 ---------------------------------------
 SCF time:   CPU 1.13s  wall 1.00s 
 SCF   energy in the final basis set =     -291.2530992403
 Total energy in the final basis set =     -291.2530992403
 
 Components of the MP2 correlation energy:
        aaaa  correlation energy =        -0.0058959797 au
        abab  correlation energy =        -0.1071650378 au
        bbbb  correlation energy =        -0.0058959797 au
        non-Brillouin singles    =        -0.0000000000 au

 Total  MP2   correlation energy =                    -0.11895700 au
        MP2         total energy =                  -291.37205624 au
  Entering Z-vector solver.
   1         0           1      0.000151    0.000151
   2         0           1      0.000029    0.000029
   3         0           1      0.000004    0.000004
   4         1           0      0.000000    0.000000    Roots Converged
 
 --------------------------------------------------------------
             Orbital Energies (a.u.) and Symmetries
 --------------------------------------------------------------
 
 Alpha MOs, Restricted
 -- Occupied --                  
-68.772  -6.121  -4.228  -4.228  -4.228  -0.734  -0.488  -0.488
  1 A'    2 A'    1 A"    3 A'    4 A'    5 A'    2 A"    6 A'                 
 -0.488
  7 A'                                                                         
 -- Virtual --                   
  0.069   0.078   0.078   0.078   0.159   0.159   0.159   0.260
  8 A'    3 A"    9 A'   10 A'   11 A'    4 A"   12 A'   13 A'                 
  0.370   0.370   0.370   0.518   0.518   0.518   0.531   0.676
  5 A"   14 A'   15 A'   16 A'    6 A"   17 A'   18 A'   19 A'                 
  0.740   0.740   1.098   1.098   1.098   1.431   1.431   1.431
  7 A"   20 A'   21 A'   22 A'    8 A"    9 A"   23 A'   24 A'                 
  1.530   1.530   1.530   1.838   1.838   1.838   1.909   1.909
 10 A"   11 A"   25 A'   26 A'   12 A"   27 A'   13 A"   28 A'                 
  2.110   2.427   2.427   2.427   2.908   2.908   2.908   3.014
 29 A'   30 A'   31 A'   14 A"   32 A'   15 A"   33 A'   34 A'                 
  6.097  12.328  12.328  12.328 143.894
 35 A'   36 A'   37 A'   16 A"   38 A'                                         
 
 Beta MOs, Restricted
 -- Occupied --                  
-68.772  -6.121  -4.228  -4.228  -4.228  -0.734  -0.488  -0.488
  1 A'    2 A'    1 A"    3 A'    4 A'    5 A'    2 A"    6 A'                 
 -0.488
  7 A'                                                                         
 -- Virtual --                   
  0.069   0.078   0.078   0.078   0.159   0.159   0.159   0.260
  8 A'    3 A"    9 A'   10 A'   11 A'    4 A"   12 A'   13 A'                 
  0.370   0.370   0.370   0.518   0.518   0.518   0.531   0.676
  5 A"   14 A'   15 A'   16 A'    6 A"   17 A'   18 A'   19 A'                 
  0.740   0.740   1.098   1.098   1.098   1.431   1.431   1.431
  7 A"   20 A'   21 A'   22 A'    8 A"    9 A"   23 A'   24 A'                 
  1.530   1.530   1.530   1.838   1.838   1.838   1.909   1.909
 10 A"   11 A"   25 A'   26 A'   12 A"   27 A'   13 A"   28 A'                 
  2.110   2.427   2.427   2.427   2.908   2.908   2.908   3.014
 29 A'   30 A'   31 A'   14 A"   32 A'   15 A"   33 A'   34 A'                 
  6.097  12.328  12.328  12.328 143.894
 35 A'   36 A'   37 A'   16 A"   38 A'                                         
 --------------------------------------------------------------
 
          Ground-State Mulliken Net Atomic Charges

     Atom                 Charge (a.u.)
  ----------------------------------------
      1 Si                    0.658037
      2 H                    -0.164509
      3 H                    -0.164510
      4 H                    -0.164509
      5 H                    -0.164509
  ----------------------------------------
  Sum of atomic charges =     0.000000

 -----------------------------------------------------------------
                    Cartesian Multipole Moments
 -----------------------------------------------------------------
    Charge (ESU x 10^10)
                 0.0000
    Dipole Moment (Debye)
         X       0.0001      Y      -0.0000      Z      -0.0000
       Tot       0.0001
    Quadrupole Moments (Debye-Ang)
        XX     -16.7225     XY      -0.0000     YY     -16.7225
        XZ      -0.0000     YZ       0.0000     ZZ     -16.7225
    Octopole Moments (Debye-Ang^2)
       XXX       1.3114    XXY       0.9273    XYY      -0.0000
       YYY      -1.8547    XXZ      -0.0000    XYZ       0.0000
       YYZ      -0.0000    XZZ      -1.3115    YZZ       0.9273
       ZZZ      -0.0000
    Hexadecapole Moments (Debye-Ang^3)
      XXXX     -42.8843   XXXY      -0.1655   XXYY     -14.1778
      XYYY      -0.0001   YYYY     -43.0009   XXXZ      -0.0000
      XXYZ       0.0000   XYYZ      -0.0000   YYYZ       0.0000
      XXZZ     -14.2946   XYZZ       0.1654   YYZZ     -14.1776
      XZZZ      -0.0000   YZZZ       0.0000   ZZZZ     -42.8834
 -----------------------------------------------------------------
 DrvMan is completing analytic gradient of the MP2 energy
 MP2 relaxed dipole moment
            1
    1   0.0000210
    2  -0.0000040
    3  -0.0000000
	Magnitude:	 0.000 au	 0.000 Debye
 MP2 energy read as -291.372056
 Full Analytical Gradient of MP2 Energy (in au.)
             1             2             3             4             5
    1    0.00001025   -0.00128403    0.00255821   -0.00128403   -0.00000039
    2   -0.00000195    0.00090788    0.00090482    0.00090788   -0.00271863
    3    0.00000000   -0.00222426   -0.00000000    0.00222426    0.00000000
 Gradient time:  CPU 0.09 s  wall 0.09 s
 Geometry Optimization Parameters
   NAtoms,    NIC,     NZ,  NCons,   NDum,   NFix, NCnnct, MaxDiis
        5      20       0       0       0       0       0       0

 Cartesian Hessian Update
 Hessian Updated using BFGS Update


** GEOMETRY OPTIMIZATION IN DELOCALIZED INTERNAL COORDINATES **
   Searching for a Minimum

   Optimization Cycle:   4

                       Coordinates (Angstroms)
     ATOM                X               Y               Z
      1  Si        0.0000076500   -0.0000014551    0.0000000000
      2  H         0.6918596392   -0.4892170865    1.1983245134
      3  H        -1.3837262944   -0.4892188967    0.0000000000
      4  H         0.6918596392   -0.4892170865   -1.1983245134
      5  H        -0.0000006339    1.4676545247    0.0000000000
   Point Group: cs    Number of degrees of freedom:     6


   Energy is   -291.372056237

 Hessian Updated using BFGS Update

  5 Hessian modes will be used to form the next step
  Hessian Eigenvalues:
     0.160000    0.160000    0.226208    0.302731    0.302845

 Minimum Search - Taking Simple RFO Step
 Searching for Lamda that Minimizes Along All modes
 Value Taken    Lamda =  -0.00013083
 Step Taken.  Stepsize is  0.024035

                             Maximum     Tolerance    Cnvgd?
         Gradient           0.005440      0.000020      NO
         Displacement       0.024035      0.000120      NO
         Energy change     -0.001782      0.000000      NO


 New Cartesian Coordinates Obtained by Inverse Iteration

 Displacement from previous Coordinates is:  0.024035
 ----------------------------------------------------------------
             Standard Nuclear Orientation (Angstroms)
    I     Atom           X                Y                Z
 ----------------------------------------------------------------
    1      Si      0.0000027611    -0.0000005256     0.0000000000
    2      H       0.6948550166    -0.4913366561     1.2035247552
    3      H      -1.3897132681    -0.4913383045     0.0000000000
    4      H       0.6948550166    -0.4913366561    -1.2035247552
    5      H       0.0000004738     1.4740121423     0.0000000000
 ----------------------------------------------------------------
 Molecular Point Group                 Cs    NOp =  2
 Largest Abelian Subgroup              Cs    NOp =  2
 Nuclear Repulsion Energy =    21.4233337872 hartrees
 There are        9 alpha and        9 beta electrons
 Applying Cartesian multipole field
    Component          Value
    ---------          -----
     (2,0,0)        1.00000E-11
     (0,2,0)        2.00000E-11
     (0,0,2)       -3.00000E-11
 Requested basis set is 6-311+G(d,p)
 There are 29 shells and 54 basis functions
 A cutoff of  1.0D-11 yielded    435 shell pairs
 There are      1528 function pairs (      1588 Cartesian)
 Smallest overlap matrix eigenvalue = 1.01E-02
 Guess MOs from SCF MO coefficient file
 Reading MOs from coefficient file
 Reading MOs from coefficient file

 -----------------------------------------------------------------------
  General SCF calculation program by
  Eric Jon Sundstrom, Paul Horn, Yuezhi Mao, Dmitri Zuev, Alec White,
  David Stuck, Shaama M.S., Shane Yost, Joonho Lee, David Small,
  Daniel Levine, Susi Lehtola, Hugh Burton, Evgeny Epifanovsky
 -----------------------------------------------------------------------
 Hartree-Fock
 using 4 threads for integral computing
 -------------------------------------------------------
 OpenMP Integral computing Module                
 Release: version 1.0, May 2013, Q-Chem Inc. Pittsburgh 
 -------------------------------------------------------
 A restricted SCF calculation will be
 performed using DIIS
 SCF converges when DIIS error is below 1.0e-08
 ---------------------------------------
  Cycle       Energy         DIIS error
 ---------------------------------------
    1    -291.2469782708      5.38e-04  
    2    -291.2532221197      5.89e-05  
    3    -291.2532241139      9.07e-06  
    4    -291.2532241728      2.54e-06  
    5    -291.2532241769      7.10e-07  
    6    -291.2532241772      1.20e-07  
    7    -291.2532241772      1.86e-08  
    8    -291.2532241773      1.89e-09  Convergence criterion met
 ---------------------------------------
 SCF time:   CPU 1.19s  wall 0.00s 
 SCF   energy in the final basis set =     -291.2532241773
 Total energy in the final basis set =     -291.2532241773
 
 Components of the MP2 correlation energy:
        aaaa  correlation energy =        -0.0058839122 au
        abab  correlation energy =        -0.1071337414 au
        bbbb  correlation energy =        -0.0058839122 au
        non-Brillouin singles    =        -0.0000000000 au

 Total  MP2   correlation energy =                    -0.11890157 au
        MP2         total energy =                  -291.37212574 au
  Entering Z-vector solver.
   1         0           1      0.000151    0.000151
   2         0           1      0.000030    0.000030
   3         0           1      0.000004    0.000004
   4         1           0      0.000000    0.000000    Roots Converged
 
 --------------------------------------------------------------
             Orbital Energies (a.u.) and Symmetries
 --------------------------------------------------------------
 
 Alpha MOs, Restricted
 -- Occupied --                  
-68.775  -6.123  -4.229  -4.229  -4.229  -0.733  -0.487  -0.487
  1 A'    2 A'    1 A"    3 A'    4 A'    5 A'    2 A"    6 A'                 
 -0.487
  7 A'                                                                         
 -- Virtual --                   
  0.069   0.078   0.078   0.078   0.159   0.159   0.159   0.258
  8 A'    3 A"    9 A'   10 A'    4 A"   11 A'   12 A'   13 A'                 
  0.371   0.371   0.371   0.517   0.517   0.517   0.531   0.673
  5 A"   14 A'   15 A'   16 A'   17 A'    6 A"   18 A'   19 A'                 
  0.740   0.740   1.093   1.093   1.093   1.432   1.432   1.432
  7 A"   20 A'   21 A'   22 A'    8 A"    9 A"   23 A'   24 A'                 
  1.530   1.530   1.530   1.835   1.835   1.835   1.902   1.902
 10 A"   11 A"   25 A'   26 A'   27 A'   12 A"   13 A"   28 A'                 
  2.103   2.418   2.418   2.418   2.906   2.906   2.906   3.009
 29 A'   30 A'   31 A'   14 A"   32 A'   33 A'   15 A"   34 A'                 
  6.094  12.321  12.321  12.321 143.888
 35 A'   36 A'   37 A'   16 A"   38 A'                                         
 
 Beta MOs, Restricted
 -- Occupied --                  
-68.775  -6.123  -4.229  -4.229  -4.229  -0.733  -0.487  -0.487
  1 A'    2 A'    1 A"    3 A'    4 A'    5 A'    2 A"    6 A'                 
 -0.487
  7 A'                                                                         
 -- Virtual --                   
  0.069   0.078   0.078   0.078   0.159   0.159   0.159   0.258
  8 A'    3 A"    9 A'   10 A'    4 A"   11 A'   12 A'   13 A'                 
  0.371   0.371   0.371   0.517   0.517   0.517   0.531   0.673
  5 A"   14 A'   15 A'   16 A'   17 A'    6 A"   18 A'   19 A'                 
  0.740   0.740   1.093   1.093   1.093   1.432   1.432   1.432
  7 A"   20 A'   21 A'   22 A'    8 A"    9 A"   23 A'   24 A'                 
  1.530   1.530   1.530   1.835   1.835   1.835   1.902   1.902
 10 A"   11 A"   25 A'   26 A'   27 A'   12 A"   13 A"   28 A'                 
  2.103   2.418   2.418   2.418   2.906   2.906   2.906   3.009
 29 A'   30 A'   31 A'   14 A"   32 A'   33 A'   15 A"   34 A'                 
  6.094  12.321  12.321  12.321 143.888
 35 A'   36 A'   37 A'   16 A"   38 A'                                         
 --------------------------------------------------------------
 
          Ground-State Mulliken Net Atomic Charges

     Atom                 Charge (a.u.)
  ----------------------------------------
      1 Si                    0.654655
      2 H                    -0.163664
      3 H                    -0.163664
      4 H                    -0.163664
      5 H                    -0.163664
  ----------------------------------------
  Sum of atomic charges =    -0.000000

 -----------------------------------------------------------------
                    Cartesian Multipole Moments
 -----------------------------------------------------------------
    Charge (ESU x 10^10)
                -0.0000
    Dipole Moment (Debye)
         X       0.0000      Y      -0.0000      Z      -0.0000
       Tot       0.0000
    Quadrupole Moments (Debye-Ang)
        XX     -16.7554     XY      -0.0000     YY     -16.7554
        XZ      -0.0000     YZ       0.0000     ZZ     -16.7554
    Octopole Moments (Debye-Ang^2)
       XXX       1.3083    XXY       0.9251    XYY      -0.0000
       YYY      -1.8503    XXZ      -0.0000    XYZ       0.0000
       YYZ      -0.0000    XZZ      -1.3084    YZZ       0.9251
       ZZZ      -0.0000
    Hexadecapole Moments (Debye-Ang^3)
      XXXX     -43.1931   XXXY      -0.1613   XXYY     -14.2837
      XYYY      -0.0000   YYYY     -43.3071   XXXZ      -0.0000
      XXYZ       0.0000   XYYZ      -0.0000   YYYZ       0.0000
      XXZZ     -14.3977   XYZZ       0.1613   YYZZ     -14.2836
      XZZZ      -0.0000   YZZZ       0.0000   ZZZZ     -43.1929
 -----------------------------------------------------------------
 DrvMan is completing analytic gradient of the MP2 energy
 MP2 relaxed dipole moment
            1
    1   0.0000075
    2  -0.0000015
    3  -0.0000000
	Magnitude:	 0.000 au	 0.000 Debye
 MP2 energy read as -291.372126
 Full Analytical Gradient of MP2 Energy (in au.)
             1             2             3             4             5
    1    0.00000278   -0.00009135    0.00018002   -0.00009135   -0.00000010
    2   -0.00000053    0.00006453    0.00006368    0.00006453   -0.00019221
    3    0.00000000   -0.00015795   -0.00000000    0.00015795    0.00000000
 Gradient time:  CPU 0.09 s  wall 0.09 s
 Geometry Optimization Parameters
   NAtoms,    NIC,     NZ,  NCons,   NDum,   NFix, NCnnct, MaxDiis
        5      20       0       0       0       0       0       0

 Cartesian Hessian Update
 Hessian Updated using BFGS Update


** GEOMETRY OPTIMIZATION IN DELOCALIZED INTERNAL COORDINATES **
   Searching for a Minimum

   Optimization Cycle:   5

                       Coordinates (Angstroms)
     ATOM                X               Y               Z
      1  Si        0.0000027611   -0.0000005256    0.0000000000
      2  H         0.6948550166   -0.4913366561    1.2035247552
      3  H        -1.3897132681   -0.4913383045    0.0000000000
      4  H         0.6948550166   -0.4913366561   -1.2035247552
      5  H         0.0000004738    1.4740121423    0.0000000000
   Point Group: cs    Number of degrees of freedom:     6


   Energy is   -291.372125743

 Hessian Updated using BFGS Update

  5 Hessian modes will be used to form the next step
  Hessian Eigenvalues:
     0.160000    0.160000    0.210316    0.302731    0.302845

 Minimum Search - Taking Simple RFO Step
 Searching for Lamda that Minimizes Along All modes
 Value Taken    Lamda =   0.00000000
 Step Taken.  Stepsize is  0.001831

                             Maximum     Tolerance    Cnvgd?
         Gradient           0.000385      0.000020      NO
         Displacement       0.001831      0.000120      NO
         Energy change     -0.000070      0.000000      NO


 New Cartesian Coordinates Obtained by Inverse Iteration

 Displacement from previous Coordinates is:  0.001831
 ----------------------------------------------------------------
             Standard Nuclear Orientation (Angstroms)
    I     Atom           X                Y                Z
 ----------------------------------------------------------------
    1      Si      0.0000008634    -0.0000001642     0.0000000000
    2      H       0.6950838396    -0.4914985182     1.2039210465
    3      H      -1.3901687591    -0.4914991317     0.0000000000
    4      H       0.6950838396    -0.4914985182    -1.2039210465
    5      H       0.0000002165     1.4744963323     0.0000000000
 ----------------------------------------------------------------
 Molecular Point Group                 Cs    NOp =  2
 Largest Abelian Subgroup              Cs    NOp =  2
 Nuclear Repulsion Energy =    21.4162942697 hartrees
 There are        9 alpha and        9 beta electrons
 Applying Cartesian multipole field
    Component          Value
    ---------          -----
     (2,0,0)        1.00000E-11
     (0,2,0)        2.00000E-11
     (0,0,2)       -3.00000E-11
 Requested basis set is 6-311+G(d,p)
 There are 29 shells and 54 basis functions
 A cutoff of  1.0D-11 yielded    435 shell pairs
 There are      1528 function pairs (      1588 Cartesian)
 Smallest overlap matrix eigenvalue = 1.01E-02
 Guess MOs from SCF MO coefficient file
 Reading MOs from coefficient file
 Reading MOs from coefficient file

 -----------------------------------------------------------------------
  General SCF calculation program by
  Eric Jon Sundstrom, Paul Horn, Yuezhi Mao, Dmitri Zuev, Alec White,
  David Stuck, Shaama M.S., Shane Yost, Joonho Lee, David Small,
  Daniel Levine, Susi Lehtola, Hugh Burton, Evgeny Epifanovsky
 -----------------------------------------------------------------------
 Hartree-Fock
 using 4 threads for integral computing
 -------------------------------------------------------
 OpenMP Integral computing Module                
 Release: version 1.0, May 2013, Q-Chem Inc. Pittsburgh 
 -------------------------------------------------------
 A restricted SCF calculation will be
 performed using DIIS
 SCF converges when DIIS error is below 1.0e-08
 ---------------------------------------
  Cycle       Energy         DIIS error
 ---------------------------------------
    1    -291.2527516657      4.07e-05  
    2    -291.2532285823      4.49e-06  
    3    -291.2532285940      6.95e-07  
    4    -291.2532285943      1.96e-07  
    5    -291.2532285944      5.44e-08  
    6    -291.2532285944      9.11e-09  Convergence criterion met
 ---------------------------------------
 SCF time:   CPU 0.86s  wall 0.00s 
 SCF   energy in the final basis set =     -291.2532285944
 Total energy in the final basis set =     -291.2532285944
 
 Components of the MP2 correlation energy:
        aaaa  correlation energy =        -0.0058830071 au
        abab  correlation energy =        -0.1071314734 au
        bbbb  correlation energy =        -0.0058830071 au
        non-Brillouin singles    =        -0.0000000000 au

 Total  MP2   correlation energy =                    -0.11889749 au
        MP2         total energy =                  -291.37212608 au
  Entering Z-vector solver.
   1         0           1      0.000151    0.000151
   2         0           1      0.000030    0.000030
   3         0           1      0.000004    0.000004
   4         1           0      0.000000    0.000000    Roots Converged
 
 --------------------------------------------------------------
             Orbital Energies (a.u.) and Symmetries
 --------------------------------------------------------------
 
 Alpha MOs, Restricted
 -- Occupied --                  
-68.775  -6.123  -4.230  -4.230  -4.230  -0.733  -0.487  -0.487
  1 A'    2 A'    1 A"    3 A'    4 A'    5 A'    2 A"    6 A'                 
 -0.487
  7 A'                                                                         
 -- Virtual --                   
  0.069   0.078   0.078   0.078   0.159   0.159   0.159   0.258
  8 A'    3 A"    9 A'   10 A'    4 A"   11 A'   12 A'   13 A'                 
  0.371   0.371   0.371   0.517   0.517   0.517   0.531   0.672
  5 A"   14 A'   15 A'    6 A"   16 A'   17 A'   18 A'   19 A'                 
  0.740   0.740   1.093   1.093   1.093   1.432   1.432   1.432
  7 A"   20 A'    8 A"   21 A'   22 A'    9 A"   23 A'   24 A'                 
  1.530   1.530   1.530   1.835   1.835   1.835   1.902   1.902
 10 A"   11 A"   25 A'   26 A'   27 A'   12 A"   13 A"   28 A'                 
  2.103   2.418   2.418   2.418   2.906   2.906   2.906   3.009
 29 A'   30 A'   14 A"   31 A'   15 A"   32 A'   33 A'   34 A'                 
  6.093  12.321  12.321  12.321 143.887
 35 A'   36 A'   37 A'   16 A"   38 A'                                         
 
 Beta MOs, Restricted
 -- Occupied --                  
-68.775  -6.123  -4.230  -4.230  -4.230  -0.733  -0.487  -0.487
  1 A'    2 A'    1 A"    3 A'    4 A'    5 A'    2 A"    6 A'                 
 -0.487
  7 A'                                                                         
 -- Virtual --                   
  0.069   0.078   0.078   0.078   0.159   0.159   0.159   0.258
  8 A'    3 A"    9 A'   10 A'    4 A"   11 A'   12 A'   13 A'                 
  0.371   0.371   0.371   0.517   0.517   0.517   0.531   0.672
  5 A"   14 A'   15 A'    6 A"   16 A'   17 A'   18 A'   19 A'                 
  0.740   0.740   1.093   1.093   1.093   1.432   1.432   1.432
  7 A"   20 A'    8 A"   21 A'   22 A'    9 A"   23 A'   24 A'                 
  1.530   1.530   1.530   1.835   1.835   1.835   1.902   1.902
 10 A"   11 A"   25 A'   26 A'   27 A'   12 A"   13 A"   28 A'                 
  2.103   2.418   2.418   2.418   2.906   2.906   2.906   3.009
 29 A'   30 A'   14 A"   31 A'   15 A"   32 A'   33 A'   34 A'                 
  6.093  12.321  12.321  12.321 143.887
 35 A'   36 A'   37 A'   16 A"   38 A'                                         
 --------------------------------------------------------------
 
          Ground-State Mulliken Net Atomic Charges

     Atom                 Charge (a.u.)
  ----------------------------------------
      1 Si                    0.654399
      2 H                    -0.163600
      3 H                    -0.163600
      4 H                    -0.163600
      5 H                    -0.163600
  ----------------------------------------
  Sum of atomic charges =    -0.000000

 -----------------------------------------------------------------
                    Cartesian Multipole Moments
 -----------------------------------------------------------------
    Charge (ESU x 10^10)
                 0.0000
    Dipole Moment (Debye)
         X       0.0000      Y      -0.0000      Z      -0.0000
       Tot       0.0000
    Quadrupole Moments (Debye-Ang)
        XX     -16.7580     XY      -0.0000     YY     -16.7580
        XZ      -0.0000     YZ      -0.0000     ZZ     -16.7579
    Octopole Moments (Debye-Ang^2)
       XXX       1.3081    XXY       0.9250    XYY      -0.0000
       YYY      -1.8500    XXZ      -0.0000    XYZ       0.0000
       YYZ      -0.0000    XZZ      -1.3081    YZZ       0.9250
       ZZZ      -0.0000
    Hexadecapole Moments (Debye-Ang^3)
      XXXX     -43.2166   XXXY      -0.1610   XXYY     -14.2917
      XYYY      -0.0000   YYYY     -43.3305   XXXZ      -0.0000
      XXYZ      -0.0000   XYYZ      -0.0000   YYYZ      -0.0000
      XXZZ     -14.4055   XYZZ       0.1609   YYZZ     -14.2917
      XZZZ      -0.0000   YZZZ       0.0000   ZZZZ     -43.2166
 -----------------------------------------------------------------
 DrvMan is completing analytic gradient of the MP2 energy
 MP2 relaxed dipole moment
            1
    1   0.0000023
    2  -0.0000004
    3  -0.0000000
	Magnitude:	 0.000 au	 0.000 Debye
 MP2 energy read as -291.372126
 Full Analytical Gradient of MP2 Energy (in au.)
             1             2             3             4             5
    1    0.00000077   -0.00000148    0.00000221   -0.00000148   -0.00000002
    2   -0.00000023    0.00000106    0.00000081    0.00000106   -0.00000269
    3   -0.00000000   -0.00000249    0.00000000    0.00000249   -0.00000000
 Gradient time:  CPU 0.09 s  wall 0.09 s
 Geometry Optimization Parameters
   NAtoms,    NIC,     NZ,  NCons,   NDum,   NFix, NCnnct, MaxDiis
        5      20       0       0       0       0       0       0

 Cartesian Hessian Update
 Hessian Updated using BFGS Update


** GEOMETRY OPTIMIZATION IN DELOCALIZED INTERNAL COORDINATES **
   Searching for a Minimum

   Optimization Cycle:   6

                       Coordinates (Angstroms)
     ATOM                X               Y               Z
      1  Si        0.0000008634   -0.0000001642    0.0000000000
      2  H         0.6950838396   -0.4914985182    1.2039210465
      3  H        -1.3901687591   -0.4914991317    0.0000000000
      4  H         0.6950838396   -0.4914985182   -1.2039210465
      5  H         0.0000002165    1.4744963323    0.0000000000
   Point Group: cs    Number of degrees of freedom:     6


   Energy is   -291.372126082

 Hessian Updated using BFGS Update

  6 Hessian modes will be used to form the next step
  Hessian Eigenvalues:
     0.160000    0.160000    0.160000    0.207257    0.302731    0.302844

 Minimum Search - Taking Simple RFO Step
 Searching for Lamda that Minimizes Along All modes
 Value Taken    Lamda =   0.00000000
 Step Taken.  Stepsize is  0.000027

                             Maximum     Tolerance    Cnvgd?
         Gradient           0.000006      0.000020     YES
         Displacement       0.000027      0.000120     YES
         Energy change     -0.000000      0.000000      NO


                       Distance Matrix (Angstroms)
             Si(  1)   H (  2)   H (  3)   H (  4)
   H (  2)  1.474495
   H (  3)  1.474497  2.407842
   H (  4)  1.474495  2.407842  2.407842
   H (  5)  1.474496  2.407842  2.407843  2.407842
 
 Final energy is   -291.372126082029     


 ******************************
 **  OPTIMIZATION CONVERGED  **
 ******************************

                       Coordinates (Angstroms)
     ATOM                X               Y               Z
      1  Si        0.0000008634   -0.0000001642    0.0000000000
      2  H         0.6950838396   -0.4914985182    1.2039210465
      3  H        -1.3901687591   -0.4914991317    0.0000000000
      4  H         0.6950838396   -0.4914985182   -1.2039210465
      5  H         0.0000002165    1.4744963323    0.0000000000

Z-matrix Print:
$molecule
0 1
Si
H  1 1.474495
H  1 1.474495 2 109.471294
H  1 1.474496 2 109.471228 3 120.000058 0
H  1 1.474497 2 109.471193 3 -119.999995 0
$end

 
 --------------------------------------------------------------
             Orbital Energies (a.u.) and Symmetries
 --------------------------------------------------------------
 
 Alpha MOs, Restricted
 -- Occupied --                  
-68.775  -6.123  -4.230  -4.230  -4.230  -0.733  -0.487  -0.487
  1 A'    2 A'    1 A"    3 A'    4 A'    5 A'    2 A"    6 A'                 
 -0.487
  7 A'                                                                         
 -- Virtual --                   
  0.069   0.078   0.078   0.078   0.159   0.159   0.159   0.258
  8 A'    3 A"    9 A'   10 A'    4 A"   11 A'   12 A'   13 A'                 
  0.371   0.371   0.371   0.517   0.517   0.517   0.531   0.672
  5 A"   14 A'   15 A'    6 A"   16 A'   17 A'   18 A'   19 A'                 
  0.740   0.740   1.093   1.093   1.093   1.432   1.432   1.432
  7 A"   20 A'    8 A"   21 A'   22 A'    9 A"   23 A'   24 A'                 
  1.530   1.530   1.530   1.835   1.835   1.835   1.902   1.902
 10 A"   11 A"   25 A'   26 A'   27 A'   12 A"   13 A"   28 A'                 
  2.103   2.418   2.418   2.418   2.906   2.906   2.906   3.009
 29 A'   30 A'   14 A"   31 A'   15 A"   32 A'   33 A'   34 A'                 
  6.093  12.321  12.321  12.321 143.887
 35 A'   36 A'   37 A'   16 A"   38 A'                                         
 
 Beta MOs, Restricted
 -- Occupied --                  
-68.775  -6.123  -4.230  -4.230  -4.230  -0.733  -0.487  -0.487
  1 A'    2 A'    1 A"    3 A'    4 A'    5 A'    2 A"    6 A'                 
 -0.487
  7 A'                                                                         
 -- Virtual --                   
  0.069   0.078   0.078   0.078   0.159   0.159   0.159   0.258
  8 A'    3 A"    9 A'   10 A'    4 A"   11 A'   12 A'   13 A'                 
  0.371   0.371   0.371   0.517   0.517   0.517   0.531   0.672
  5 A"   14 A'   15 A'    6 A"   16 A'   17 A'   18 A'   19 A'                 
  0.740   0.740   1.093   1.093   1.093   1.432   1.432   1.432
  7 A"   20 A'    8 A"   21 A'   22 A'    9 A"   23 A'   24 A'                 
  1.530   1.530   1.530   1.835   1.835   1.835   1.902   1.902
 10 A"   11 A"   25 A'   26 A'   27 A'   12 A"   13 A"   28 A'                 
  2.103   2.418   2.418   2.418   2.906   2.906   2.906   3.009
 29 A'   30 A'   14 A"   31 A'   15 A"   32 A'   33 A'   34 A'                 
  6.093  12.321  12.321  12.321 143.887
 35 A'   36 A'   37 A'   16 A"   38 A'                                         
 --------------------------------------------------------------
 
          Ground-State Mulliken Net Atomic Charges

     Atom                 Charge (a.u.)
  ----------------------------------------
      1 Si                    0.654399
      2 H                    -0.163600
      3 H                    -0.163600
      4 H                    -0.163600
      5 H                    -0.163600
  ----------------------------------------
  Sum of atomic charges =    -0.000000

 -----------------------------------------------------------------
                    Cartesian Multipole Moments
 -----------------------------------------------------------------
    Charge (ESU x 10^10)
                 0.0000
    Dipole Moment (Debye)
         X       0.0000      Y      -0.0000      Z      -0.0000
       Tot       0.0000
    Quadrupole Moments (Debye-Ang)
        XX     -16.7580     XY      -0.0000     YY     -16.7580
        XZ      -0.0000     YZ      -0.0000     ZZ     -16.7579
    Octopole Moments (Debye-Ang^2)
       XXX       1.3081    XXY       0.9250    XYY      -0.0000
       YYY      -1.8500    XXZ      -0.0000    XYZ       0.0000
       YYZ      -0.0000    XZZ      -1.3081    YZZ       0.9250
       ZZZ      -0.0000
    Hexadecapole Moments (Debye-Ang^3)
      XXXX     -43.2166   XXXY      -0.1610   XXYY     -14.2917
      XYYY      -0.0000   YYYY     -43.3305   XXXZ      -0.0000
      XXYZ      -0.0000   XYYZ      -0.0000   YYYZ      -0.0000
      XXZZ     -14.4055   XYZZ       0.1609   YYZZ     -14.2917
      XZZZ      -0.0000   YZZZ       0.0000   ZZZZ     -43.2166
 -----------------------------------------------------------------
Archival summary:
1\1\mm2.localdomain\OPT\MP2\6-311+G**\i14\xuedong\FriMay1010:31:312019FriMay1010:31:312019\0\\#,OPT,MP2,6-311+G**,\\0,1\Si\H,1,1.4745\H,1,1.4745,2,109.471\H,1,1.4745,2,109.471,3,120,0\H,1,1.4745,2,109.471,3,-120,0\\HF=-291.253229\MP2=-291.372126\\@

 Total job time:  7.72s(wall), 25.42s(cpu) 
 Fri May 10 10:31:31 2019

        *************************************************************
        *                                                           *
        *  Thank you very much for using Q-Chem.  Have a nice day.  *
        *                                                           *
        *************************************************************



Running Job 2 of 2 18.freq.qcinp
qchem 18.freq.qcinp_758.1 /scratch/xuedong/qchem758/ 1
/home/qwang/software/qchem5.1/exe/qcprog.exe_s 18.freq.qcinp_758.1 /scratch/xuedong/qchem758/
Check license passed

                  Welcome to Q-Chem
     A Quantum Leap Into The Future Of Chemistry


 Q-Chem 5.1, Q-Chem, Inc., Pleasanton, CA (2018)

 Yihan Shao,  Zhengting Gan,  E. Epifanovsky,  A. T. B. Gilbert,  M. Wormit,  
 J. Kussmann,  A. W. Lange,  A. Behn,  Jia Deng,  Xintian Feng,  D. Ghosh,  
 M. Goldey,  P. R. Horn,  L. D. Jacobson,  I. Kaliman,  T. Kus,  A. Landau,  
 Jie Liu,  E. I. Proynov,  R. M. Richard,  R. P. Steele,  E. J. Sundstrom,  
 H. L. Woodcock III,  P. M. Zimmerman,  D. Zuev,  B. Albrecht,  E. Alguire,  
 S. A. Baeppler,  D. Barton,  Z. Benda,  Y. A. Bernard,  E. J. Berquist,  
 K. B. Bravaya,  H. Burton,  D. Casanova,  Chun-Min Chang,  Yunqing Chen,  
 A. Chien,  K. D. Closser,  M. P. Coons,  S. Coriani,  S. Dasgupta,  
 A. L. Dempwolff,  M. Diedenhofen,  Hainam Do,  R. G. Edgar,  Po-Tung Fang,  
 S. Faraji,  S. Fatehi,  Qingguo Feng,  K. D. Fenk,  J. Fosso-Tande,  
 Qinghui Ge,  A. Ghysels,  G. Gidofalvi,  J. Gomes,  J. Gonthier,  A. Gunina,  
 D. Hait,  M. W. D. Hanson-Heine,  P. H. P. Harbach,  A. W. Hauser,  
 J. E. Herr,  E. G. Hohenstein,  Z. C. Holden,  Kerwin Hui,  B. C. Huynh,  
 T.-C. Jagau,  Hyunjun Ji,  B. Kaduk,  K. Khistyaev,  Jaehoon Kim,  
 P. Klunzinger,  K. Koh,  D. Kosenkov,  L. Koulias,  T. Kowalczyk,  
 C. M. Krauter,  A. Kunitsa,  Ka Un Lao,  A. Laurent,  K. V. Lawler,  
 Joonho Lee,  D. Lefrancois,  S. Lehtola,  D. S. Levine,  Yi-Pei Li,  
 You-Sheng Lin,  Fenglai Liu,  E. Livshits,  A. Luenser,  P. Manohar,  
 E. Mansoor,  S. F. Manzer,  Shan-Ping Mao,  Yuezhi Mao,  N. Mardirossian,  
 A. V. Marenich,  T. Markovich,  L. A. Martinez-Martinez,  S. A. Maurer,  
 N. J. Mayhall,  S. C. McKenzie,  J.-M. Mewes,  A. F. Morrison,  
 J. W. Mullinax,  K. Nanda,  T. S. Nguyen-Beck,  R. Olivares-Amaya,  
 J. A. Parkhill,  T. M. Perrine,  F. Plasser,  P. Pokhilko,  S. Prager,  
 A. Prociuk,  E. Ramos,  D. R. Rehn,  F. Rob,  M. Schneider,  N. Sergueev,  
 S. M. Sharada,  S. Sharma,  D. W. Small,  T. Stauch,  T. Stein,  
 Yu-Chuan Su,  A. J. W. Thom,  A. Tkatchenko,  T. Tsuchimochi,  N. M. Tubman,  
 L. Vogt,  M. L. Vidal,  O. Vydrov,  M. A. Watson,  J. Wenzel,  
 M. de Wergifosse,  T. A. Wesolowski,  A. White,  J. Witte,  A. Yamada,  
 Jun Yang,  K. Yao,  S. Yeganeh,  S. R. Yost,  Zhi-Qiang You,  A. Zech,  
 Igor Ying Zhang,  Xing Zhang,  Yan Zhao,  Ying Zhu,  B. R. Brooks,  
 G. K. L. Chan,  C. J. Cramer,  M. S. Gordon,  W. J. Hehre,  A. Klamt,  
 M. W. Schmidt,  C. D. Sherrill,  D. G. Truhlar,  A. Aspuru-Guzik,  R. Baer,  
 A. T. Bell,  N. A. Besley,  Jeng-Da Chai,  R. A. DiStasio Jr.,  A. Dreuw,  
 B. D. Dunietz,  T. R. Furlani,  Chao-Ping Hsu,  Yousung Jung,  Jing Kong,  
 D. S. Lambrecht,  WanZhen Liang,  C. Ochsenfeld,  V. A. Rassolov,  
 L. V. Slipchenko,  J. E. Subotnik,  T. Van Voorhis,  J. M. Herbert,  
 A. I. Krylov,  P. M. W. Gill,  M. Head-Gordon

 Contributors to earlier versions of Q-Chem not listed above: 
 R. D. Adamson,  B. Austin,  J. Baker,  G. J. O. Beran,  K. Brandhorst,  
 S. T. Brown,  E. F. C. Byrd,  A. K. Chakraborty,  C.-L. Cheng,  
 Siu Hung Chien,  D. M. Chipman,  D. L. Crittenden,  H. Dachsel,  
 R. J. Doerksen,  A. D. Dutoi,  L. Fusti-Molnar,  W. A. Goddard III,  
 A. Golubeva-Zadorozhnaya,  S. R. Gwaltney,  G. Hawkins,  A. Heyden,  
 S. Hirata,  G. Kedziora,  F. J. Keil,  C. Kelley,  Jihan Kim,  R. A. King,  
 R. Z. Khaliullin,  P. P. Korambath,  W. Kurlancheek,  A. M. Lee,  M. S. Lee,  
 S. V. Levchenko,  Ching Yeh Lin,  D. Liotard,  R. C. Lochan,  I. Lotan,  
 P. E. Maslen,  N. Nair,  D. P. O'Neill,  D. Neuhauser,  E. Neuscamman,  
 C. M. Oana,  R. Olson,  B. Peters,  R. Peverati,  P. A. Pieniazek,  
 Y. M. Rhee,  J. Ritchie,  M. A. Rohrdanz,  E. Rosta,  N. J. Russ,  
 H. F. Schaefer III,  N. E. Schultz,  N. Shenvi,  A. C. Simmonett,  A. Sodt,  
 D. Stuck,  K. S. Thanthiriwatte,  V. Vanovschi,  Tao Wang,  A. Warshel,  
 C. F. Williams,  Q. Wu,  X. Xu,  W. Zhang

 Please cite Q-Chem as follows:
 Y. Shao et al., Mol. Phys. 113, 184-215 (2015)
 DOI: 10.1080/00268976.2014.952696

 Q-Chem 5.1.0 for Intel X86 EM64T Linux

 Parts of Q-Chem use Armadillo 8.300.2 (Tropical Shenanigans).
 http://arma.sourceforge.net/

 Q-Chem begins on Fri May 10 10:31:31 2019  

Host: 
0

     Scratch files written to /scratch/xuedong/qchem758//
 May118 |scratch|qcdevops|jenkins|workspace|build_RNUM 6581   
Processing $rem in /home/qwang/software/qchem5.1/config/preferences.
 MEM_TOTAL  2000 
The previous job contains 0 fragments, simply inherited here
Core orbitals will be frozen


!!********************************************.
!!******************Warning*******************.
!!Desired Analytical derivatives not available.
!!Finite difference job might take a long time.
!!********************************************.
!!********************************************.


 2-order derivative to be evaluated numerically with 1-order analytical derivatives

Checking the input file for inconsistencies... 	...done.

--------------------------------------------------------------
User input:
--------------------------------------------------------------
$comment
Now calculate the frequency at molecule  the same level of theory
$end

$molecule
read
$end

$rem
JOBTYPE  =  freq
METHOD  =  MP2
BASIS  =  6-311G+(d,p)
SCF_GUESS = read
SCF_MAX_CYCLES  =  200
GEOM_OPT_MAX_CYCLES  =  300
GEOM_OPT_TOL_DISPLACEMENT = 120
GEOM_OPT_TOL_ENERGY = 10
GEOM_OPT_TOL_GRADIENT = 20
$end

--------------------------------------------------------------

 Q-Chem warning in module 0, line  104:

 CnV slipped through

 
 D(1),D(2),D(3)   20.7039711569157        20.7039792779185     
   20.7039833308582     
 ----------------------------------------------------------------
             Standard Nuclear Orientation (Angstroms)
    I     Atom           X                Y                Z
 ----------------------------------------------------------------
    1      Si     -0.0000002048     0.0000001328    -0.0000000000
    2      H      -0.8420125776     0.1254040338    -1.2039210471
    3      H       0.6646653734    -1.3161922860     0.0000000006
    4      H      -0.8420125793     0.1254040341     1.2039210459
    5      H       1.0193626511     1.0653823583     0.0000000006
 ----------------------------------------------------------------
 Molecular Point Group                 Cs    NOp =  2
 Largest Abelian Subgroup              Cs    NOp =  2
 Nuclear Repulsion Energy =    21.4162942697 hartrees
 There are        9 alpha and        9 beta electrons
 Requested basis set is 6-311+G(d,p)
 There are 29 shells and 54 basis functions

 Total QAlloc Memory Limit   2000 MB
 Mega-Array Size       188 MB
 MEM_STATIC part       192 MB

                       Distance Matrix (Angstroms)
             Si(  1)   H (  2)   H (  3)   H (  4)
   H (  2)  1.474495
   H (  3)  1.474497  2.407842
   H (  4)  1.474495  2.407842  2.407842
   H (  5)  1.474496  2.407842  2.407843  2.407842
 
 A cutoff of  1.0D-11 yielded    435 shell pairs
 There are      1528 function pairs (      1588 Cartesian)
 
 -------------------------------------------------------
 OpenMP Integral Computing Module                       
 Release: version 1.0, May 2013, Q-Chem Inc. Pittsburgh 
 -------------------------------------------------------
 Integral Job Info:
 Integral job number is                      11
 Integral operator is                         1
 short-range coefficients                     0
 long-range coefficients              100000000
 Omega coefficients                           0
 if combine SR and LR in K                    0
 Integral screening is                        0
 Integral computing path is                   2
 max size of driver memory is            800000
 size of driver memory is                593474
[...]
    Quadrupole Moments (Debye-Ang)
        XX     -16.7580     XY       0.0000     YY     -16.7580
        XZ       0.0002     YZ      -0.0003     ZZ     -16.7579
    Octopole Moments (Debye-Ang^2)
       XXX      -0.1032    XXY      -0.4566    XYY      -1.4815
       YYY       0.6927    XXZ      -0.0026    XYZ      -0.0006
       YYZ      -0.0017    XZZ       1.5846    YZZ      -0.2360
       ZZZ      -0.0048
    Hexadecapole Moments (Debye-Ang^3)
      XXXX     -42.9044   XXXY      -0.0963   XXYY     -14.4976
      XYYY       0.0465   YYYY     -43.2310   XXXZ      -0.0022
      XXYZ      -0.0012   XYYZ      -0.0009   YYYZ      -0.0036
      XXZZ     -14.5119   XYZZ       0.0497   YYZZ     -14.1853
      XZZZ      -0.0021   YZZZ      -0.0034   ZZZZ     -43.2166
 -----------------------------------------------------------------
 DrvMan is completing analytic gradient of the MP2 energy
 MP2 relaxed dipole moment
            1
    1  -0.0000020
    2   0.0000012
    3  -0.0004921
	Magnitude:	 0.000 au	 0.001 Debye
 MP2 energy read as -291.372126
 Full Analytical Gradient of MP2 Energy (in au.)
             1             2             3             4             5
    1   -0.00000077   -0.00001476   -0.00000105    0.00001836   -0.00000179
    2    0.00000038   -0.00001650    0.00000209    0.00001592   -0.00000190
    3   -0.00005451    0.00000622    0.00000505    0.00000125    0.00004200
 Gradient time:  CPU 0.09 s  wall 0.09 s
Dipole drv :
gprntSymmMtrx error report: 
 Final Hessian.
            1           2           3           4           5           6
    1   0.3303792   0.0000003   0.0000000  -0.0814282   0.0078316  -0.0751848
    2   0.0000003   0.3303784   0.0000000   0.0078315  -0.0300112   0.0111977
    3   0.0000000   0.0000000   0.3303811  -0.0751845   0.0111977  -0.1363448
    4  -0.0814282   0.0078315  -0.0751845   0.0804746  -0.0086755   0.0832873
    5   0.0078316  -0.0300112   0.0111977  -0.0086755   0.0235148  -0.0124043
    6  -0.0751848   0.0111977  -0.1363448   0.0832873  -0.0124043   0.1413099
    7  -0.0616100   0.0648827   0.0000002  -0.0018182   0.0079693  -0.0007181
    8   0.0648830  -0.1573280   0.0000000   0.0013533   0.0006709   0.0005312
    9   0.0000000   0.0000000  -0.0288451  -0.0058832   0.0107599   0.0019749
   10  -0.0814282   0.0078315   0.0751845   0.0069769  -0.0006415  -0.0065428
   11   0.0078316  -0.0300112  -0.0111977  -0.0006415   0.0027664   0.0009746
   12   0.0751848  -0.0111977  -0.1363448   0.0065428  -0.0009746  -0.0089152
   13  -0.1059116  -0.0805457  -0.0000001  -0.0042054  -0.0064836  -0.0008416
   14  -0.0805461  -0.1130271   0.0000000   0.0001320   0.0030584  -0.0002991
   15   0.0000000   0.0000000  -0.0288450  -0.0087633  -0.0085786   0.0019752
            7           8           9          10          11          12
    1  -0.0616100   0.0648830   0.0000000  -0.0814282   0.0078316   0.0751848
    2   0.0648827  -0.1573280   0.0000000   0.0078315  -0.0300112  -0.0111977
    3   0.0000002   0.0000000  -0.0288451   0.0751845  -0.0111977  -0.1363448
    4  -0.0018182   0.0013533  -0.0058832   0.0069769  -0.0006415   0.0065428
    5   0.0079693   0.0006709   0.0107599  -0.0006415   0.0027664  -0.0009746
    6  -0.0007181   0.0005312   0.0019749  -0.0065428   0.0009746  -0.0089152
    7   0.0585199  -0.0718753   0.0000000  -0.0018180   0.0079692   0.0007181
    8  -0.0718753   0.1645546   0.0000000   0.0013533   0.0006709  -0.0005312
    9   0.0000000   0.0000000   0.0222236   0.0058832  -0.0107599   0.0019749
   10  -0.0018180   0.0013533   0.0058832   0.0804746  -0.0086755  -0.0832873
   11   0.0079692   0.0006709  -0.0107599  -0.0086755   0.0235148   0.0124043
   12   0.0007181  -0.0005312   0.0019749  -0.0832873   0.0124043   0.1413099
   13   0.0067259   0.0042855  -0.0000001  -0.0042054  -0.0064838   0.0008418
   14  -0.0089451  -0.0085682   0.0000000   0.0001320   0.0030584   0.0002991
   15   0.0000000   0.0000000   0.0026707   0.0087633   0.0085786   0.0019752
           13          14          15
    1  -0.1059116  -0.0805461   0.0000000
    2  -0.0805457  -0.1130271   0.0000000
    3  -0.0000001   0.0000000  -0.0288450
    4  -0.0042054   0.0001320  -0.0087633
    5  -0.0064836   0.0030584  -0.0085786
    6  -0.0008416  -0.0002991   0.0019752
    7   0.0067259  -0.0089451   0.0000000
    8   0.0042855  -0.0085682   0.0000000
    9  -0.0000001   0.0000000   0.0026707
   10  -0.0042054   0.0001320   0.0087633
   11  -0.0064838   0.0030584   0.0085786
   12   0.0008418   0.0002991   0.0019752
   13   0.1075964   0.0892269   0.0000000
   14   0.0892269   0.1154788   0.0000000
   15   0.0000000   0.0000000   0.0222232
 ----------------------------------------------------------------
             Standard Nuclear Orientation (Angstroms)
    I     Atom           X                Y                Z
 ----------------------------------------------------------------
    1      Si     -0.0000002048     0.0000001328    -0.0000000000
    2      H      -0.8420125776     0.1254040338    -1.2039210471
    3      H       0.6646653734    -1.3161922860     0.0000000006
    4      H      -0.8420125793     0.1254040341     1.2039210459
    5      H       1.0193626511     1.0653823583     0.0000000006
 ----------------------------------------------------------------
 Nuclear Repulsion Energy =    21.4162942697 hartrees
 There are        9 alpha and        9 beta electrons
 old dipole drv.
            1           2           3           4           5           6
    1   1.1009457  -0.0000037   0.0000000  -0.2749384   0.0021559  -0.0207963
    2  -0.0000004   1.1009462   0.0000000   0.0021663  -0.2607183   0.0030930
    3   0.0000000  -0.0000000   1.1009478  -0.0208026   0.0030891  -0.2901270
            7           8           9          10          11          12
    1  -0.2694671   0.0179363   0.0000000  -0.2749384   0.0021559   0.0207963
    2   0.0179516  -0.2959173   0.0000000   0.0021663  -0.2607183  -0.0030930
    3  -0.0000108   0.0000000  -0.2603923   0.0208026  -0.0030891  -0.2901270
           13          14          15
    1  -0.2817186  -0.0222679   0.0000000
    2  -0.0222833  -0.2836648   0.0000000
    3   0.0000045  -0.0000000  -0.2603935
 New transposed dipole drv.
            1           2           3
    1   1.1009457  -0.0000004   0.0000000
    2  -0.0000037   1.1009462  -0.0000000
    3   0.0000000   0.0000000   1.1009478
    4  -0.2749384   0.0021663  -0.0208026
    5   0.0021559  -0.2607183   0.0030891
    6  -0.0207963   0.0030930  -0.2901270
    7  -0.2694671   0.0179516  -0.0000108
    8   0.0179363  -0.2959173   0.0000000
    9   0.0000000   0.0000000  -0.2603923
   10  -0.2749384   0.0021663   0.0208026
   11   0.0021559  -0.2607183  -0.0030891
   12   0.0207963  -0.0030930  -0.2901270
   13  -0.2817186  -0.0222833   0.0000045
   14  -0.0222679  -0.2836648  -0.0000000
   15   0.0000000   0.0000000  -0.2603935
FINAL TENSOR RESULT:
Order 2, Length 15
    Atom      X          Y          Z
     1 Order 1, Length 15
    Atom      X          Y          Z
     1    3.303791623331624e-01   2.787449653912535e-07   0.000000000000000e+00
     2   -8.142820655703917e-02   7.831599378803369e-03  -7.518483022271101e-02
     3   -6.160998899050377e-02   6.488302495056207e-02   0.000000000000000e+00
     4   -8.142820667683137e-02   7.831599398124930e-03   7.518483025708003e-02
     5   -1.059116108574509e-01  -8.054609461625015e-02   0.000000000000000e+00

Order 1, Length 15
    Atom      X          Y          Z
     1    2.787449653912535e-07   3.303783997995384e-01   0.000000000000000e+00
     2    7.831470664714679e-03  -3.001124581476040e-02   1.119767880649506e-02
     3    6.488266672205723e-02  -1.573280463639905e-01   0.000000000000000e+00
     4    7.831470664185923e-03  -3.001124582300749e-02  -1.119767882182893e-02
     5   -8.054573691166882e-02  -1.130271189934280e-01   0.000000000000000e+00

Order 1, Length 15
    Atom      X          Y          Z
     1    0.000000000000000e+00   0.000000000000000e+00   3.303810811948983e-01
     2   -7.518446613068556e-02   1.119770279029283e-02  -1.363447890432224e-01
     3    1.616829537421386e-07   0.000000000000000e+00  -2.884507132123241e-02
     4    7.518446613068556e-02  -1.119770279029283e-02  -1.363447890432224e-01
     5   -1.210818314608907e-07   0.000000000000000e+00  -2.884497257407842e-02


     2 Order 1, Length 15
    Atom      X          Y          Z
     1   -8.142820655703917e-02   7.831470664714679e-03  -7.518446613068556e-02
     2    8.047458913008247e-02  -8.675476879084765e-03   8.328733431901074e-02
     3   -1.818240504789007e-03   1.353348145130145e-03  -5.883196973953694e-03
     4    6.976916802115435e-03  -6.414942675119937e-04   6.542806004082781e-03
     5   -4.205434959533778e-03   1.319784874687127e-04  -8.763283411071389e-03

Order 1, Length 15
    Atom      X          Y          Z
     1    7.831599378803369e-03  -3.001124581476040e-02   1.119770279029283e-02
     2   -8.675476879084765e-03   2.351478231912862e-02  -1.240428871444451e-02
     3    7.969256088575533e-03   6.709137555286949e-04   1.075994443489984e-02
     4   -6.414942675119937e-04   2.766436726021428e-03  -9.745750750714904e-04
     5   -6.483629362507517e-03   3.058432220758822e-03  -8.578587223339214e-03

Order 1, Length 15
    Atom      X          Y          Z
     1   -7.518483022271101e-02   1.119767880649506e-02  -1.363447890432224e-01
     2    8.328733431901074e-02  -1.240428871444451e-02   1.413098737611843e-01
     3   -7.180658635271962e-04   5.311701459834126e-04   1.974943170303512e-03
     4   -6.542806004082781e-03   9.745750750714904e-04  -8.915235024563484e-03
     5   -8.416059158702783e-04  -2.991196768467451e-04   1.975221600721147e-03


     3 Order 1, Length 15
    Atom      X          Y          Z
     1   -6.160998899050377e-02   6.488266672205723e-02   1.616829537421386e-07
     2   -1.818240504789007e-03   7.969256088575533e-03  -7.180658635271962e-04
     3    5.851989438443773e-02  -7.187530819294560e-02   0.000000000000000e+00
     4   -1.818025422834748e-03   7.969224039201448e-03   7.181064042906440e-04
     5    6.725850940892545e-03  -8.945078417463066e-03   0.000000000000000e+00

Order 1, Length 15
    Atom      X          Y          Z
     1    6.488302495056207e-02  -1.573280463639905e-01   0.000000000000000e+00
     2    1.353348145130145e-03   6.709137555286949e-04   5.311701459834126e-04
     3   -7.187530819294560e-02   1.645546378224768e-01   0.000000000000000e+00
     4    1.353348155646480e-03   6.709137614331174e-04  -5.311701480984296e-04
     5    4.285484497810068e-03  -8.568150697861026e-03   0.000000000000000e+00

Order 1, Length 15
    Atom      X          Y          Z
     1    0.000000000000000e+00   0.000000000000000e+00  -2.884507132123241e-02
     2   -5.883196973953694e-03   1.075994443489984e-02   1.974943170303512e-03
     3    0.000000000000000e+00   0.000000000000000e+00   2.222359146436544e-02
     4    5.883196973953694e-03  -1.075994443489984e-02   1.974943170303512e-03
     5   -1.164845076294106e-07   0.000000000000000e+00   2.670729602181276e-03


     4 Order 1, Length 15
    Atom      X          Y          Z
     1   -8.142820667683137e-02   7.831470664185923e-03   7.518446613068556e-02
     2    6.976916802115435e-03  -6.414942675119937e-04  -6.542806004082781e-03
     3   -1.818025422834748e-03   1.353348155646480e-03   5.883196973953694e-03
     4    8.047458913008247e-02  -8.675476879084765e-03  -8.328733431901074e-02
     5   -4.205391303174030e-03   1.319784874980879e-04   8.763283411071389e-03

Order 1, Length 15
    Atom      X          Y          Z
     1    7.831599398124930e-03  -3.001124582300749e-02  -1.119770279029283e-02
     2   -6.414942675119937e-04   2.766436726021428e-03   9.745750750714904e-04
     3    7.969224039201448e-03   6.709137614331174e-04  -1.075994443489984e-02
     4   -8.675476879084765e-03   2.351478231912862e-02   1.240428871444451e-02
     5   -6.483846399743590e-03   3.058432213774860e-03   8.578587223339214e-03

Order 1, Length 15
    Atom      X          Y          Z
     1    7.518483025708003e-02  -1.119767882182893e-02  -1.363447890432224e-01
     2    6.542806004082781e-03  -9.745750750714904e-04  -8.915235024563484e-03
     3    7.181064042906440e-04  -5.311701480984296e-04   1.974943170303512e-03
     4   -8.328733431901074e-02   1.240428871444451e-02   1.413098737611843e-01
     5    8.417977688865263e-04   2.991196989369227e-04   1.975221600721147e-03


     5 Order 1, Length 15
    Atom      X          Y          Z
     1   -1.059116108574509e-01  -8.054573691166882e-02  -1.210818314608907e-07
     2   -4.205434959533778e-03  -6.483629362507517e-03  -8.416059158702783e-04
     3    6.725850940892545e-03   4.285484497810068e-03  -1.164845076294106e-07
     4   -4.205391303174030e-03  -6.483846399743590e-03   8.417977688865263e-04
     5    1.075964401243768e-01   8.922690782339014e-02   0.000000000000000e+00

Order 1, Length 15
    Atom      X          Y          Z
     1   -8.054609461625015e-02  -1.130271189934280e-01   0.000000000000000e+00
     2    1.319784874687127e-04   3.058432220758822e-03  -2.991196768467451e-04
     3   -8.945078417463066e-03  -8.568150697861026e-03   0.000000000000000e+00
     4    1.319784874980879e-04   3.058432213774860e-03   2.991196989369227e-04
     5    8.922690782339014e-02   1.154787556285264e-01   0.000000000000000e+00

Order 1, Length 15
    Atom      X          Y          Z
     1    0.000000000000000e+00   0.000000000000000e+00  -2.884497257407842e-02
     2   -8.763283411071389e-03  -8.578587223339214e-03   1.975221600721147e-03
     3    0.000000000000000e+00   0.000000000000000e+00   2.670729602181276e-03
     4    8.763283411071389e-03   8.578587223339214e-03   1.975221600721147e-03
     5    0.000000000000000e+00   0.000000000000000e+00   2.222317565093634e-02




 # Finishing finite difference calculation for IDERIV #
 ######################################################
 ######################################################
 Requested basis set is 6-311+G(d,p)
 There are 29 shells and 54 basis functions
 **********************************************************************
 **                                                                  **
 **                       VIBRATIONAL ANALYSIS                       **
 **                       --------------------                       **
 **                                                                  **
 **        VIBRATIONAL FREQUENCIES (CM**-1) AND NORMAL MODES         **
 **     FORCE CONSTANTS (mDYN/ANGSTROM) AND REDUCED MASSES (AMU)     **
 **                  INFRARED INTENSITIES (KM/MOL)                   **
 **                                                                  **
 **********************************************************************
 

 Mode:                 1                      2                      3
 Frequency:       973.26                 973.27                 973.27
 Force Cnst:      0.6115                 0.6115                 0.6115
 Red. Mass:       1.0956                 1.0956                 1.0956
 IR Active:          YES                    YES                    YES
 IR Intens:      199.235                199.217                199.220
 Raman Active:       YES                    YES                    YES
               X      Y      Z        X      Y      Z        X      Y      Z
 Si        -0.057 -0.007  0.004    0.007 -0.056  0.011   -0.003 -0.011 -0.056
 H          0.423  0.099 -0.306    0.034  0.578  0.049   -0.269  0.162  0.171
 H          0.506  0.268 -0.045    0.191  0.061 -0.113    0.074  0.032  0.599
 H          0.378  0.105  0.279   -0.077  0.595 -0.116    0.321  0.075  0.184
 H          0.262 -0.287 -0.045   -0.353  0.309 -0.113   -0.047  0.037  0.599
 TransDip  -0.448 -0.053  0.033    0.058 -0.440  0.084   -0.023 -0.087 -0.443

 Mode:                 4                      5                      6
 Frequency:      1012.56                1012.57                2329.93
 Force Cnst:      0.6088                 0.6088                 3.2235
 Red. Mass:       1.0078                 1.0078                 1.0078
 IR Active:          YES                    YES                    YES
 IR Intens:        0.000                  0.000                  0.000
 Raman Active:       YES                    YES                    YES
               X      Y      Z        X      Y      Z        X      Y      Z
 Si        -0.000 -0.000 -0.000    0.000 -0.000 -0.000    0.000 -0.000 -0.000
 H         -0.408  0.020  0.288   -0.041 -0.498 -0.023    0.285 -0.042  0.408
 H          0.445  0.225 -0.040   -0.036 -0.018 -0.498   -0.226  0.447 -0.000
 H         -0.397  0.100 -0.288    0.106  0.488  0.023    0.285 -0.042 -0.408
 H          0.360 -0.345  0.040   -0.029  0.028  0.498   -0.346 -0.361 -0.000
 TransDip  -0.000 -0.000 -0.000    0.000 -0.000  0.000    0.000 -0.000 -0.000

 Mode:                 7                      8                      9
 Frequency:      2333.92                2333.92                2333.92
 Force Cnst:      3.3738                 3.3738                 3.3738
 Red. Mass:       1.0512                 1.0512                 1.0512
 IR Active:          YES                    YES                    YES
 IR Intens:      137.880                137.888                137.890
 Raman Active:       YES                    YES                    YES
               X      Y      Z        X      Y      Z        X      Y      Z
 Si        -0.000 -0.040  0.002    0.034 -0.002 -0.021   -0.021 -0.002 -0.034
 H         -0.064 -0.005 -0.090   -0.022  0.005 -0.058    0.490 -0.075  0.698
 H         -0.352  0.681  0.001   -0.154  0.329 -0.008    0.069 -0.153 -0.013
 H         -0.017 -0.012  0.024   -0.447  0.068  0.649   -0.211  0.030  0.278
 H          0.443  0.448  0.001   -0.330 -0.359 -0.008    0.229  0.247 -0.013
 TransDip  -0.004 -0.375  0.022    0.322 -0.014 -0.194   -0.195 -0.016 -0.321

 STANDARD THERMODYNAMIC QUANTITIES AT   298.15 K  AND     1.00 ATM

   This Molecule has  0 Imaginary Frequencies
   Zero point vibrational energy:       20.409 kcal/mol

   Atom    1 Element Si Has Mass   27.97693
   Atom    2 Element H  Has Mass    1.00783
   Atom    3 Element H  Has Mass    1.00783
   Atom    4 Element H  Has Mass    1.00783
   Atom    5 Element H  Has Mass    1.00783
   Molecular Mass:    32.008250 amu
   Principal axes and moments of inertia in amu*Bohr^2:
                             1           2           3
    Eigenvalues --       20.86608    20.86609    20.86610
          X              -0.00000     0.00000     1.00000
          Y               1.00000     0.00000     0.00000
          Z               0.00000     1.00000     0.00000
   Rotational Symmetry Number is   1
   The Molecule is a Spherical Top
   Translational Enthalpy:        0.889 kcal/mol
   Rotational Enthalpy:           0.889 kcal/mol
   Vibrational Enthalpy:         20.531 kcal/mol
   gas constant (RT):             0.592 kcal/mol
   Translational Entropy:        36.322  cal/mol.K
   Rotational Entropy:           16.859  cal/mol.K
   Vibrational Entropy:           0.492  cal/mol.K

   Total Enthalpy:               22.901 kcal/mol
   Total Entropy:                53.673  cal/mol.K
Archival summary:
1\1\mm2.localdomain\FREQ\MP2\6-311+G**\i14\xuedong\FriMay1010:31:572019FriMay1010:31:572019\0\\#,FREQ,MP2,6-311+G**,\\0,1\Si\H,1,1.4745\H,1,1.4745,2,109.471\H,1,1.4745,2,109.471,3,120,0\H,1,1.4745,2,109.471,3,-120,0\\HF=-291.253229\MP2=-291.372126\\@

 Total job time:  26.49s(wall), 86.68s(cpu) 
 Fri May 10 10:31:57 2019

        *************************************************************
        *                                                           *
        *  Thank you very much for using Q-Chem.  Have a nice day.  *
        *                                                           *
        *************************************************************


