
Running Job 1 of 2 27.freq.qcinp
qchem 27.freq.qcinp_16181.0 /scratch/xuedong/qchem16181/ 1
/home/qwang/software/qchem5.1/exe/qcprog.exe_s 27.freq.qcinp_16181.0 /scratch/xuedong/qchem16181/
Check license passed

                  Welcome to Q-Chem
     A Quantum Leap Into The Future Of Chemistry


 Q-Chem 5.1, Q-Chem, Inc., Pleasanton, CA (2018)

 Yihan Shao,  Zhengting Gan,  E. Epifanovsky,  A. T. B. Gilbert,  M. Wormit,  
 J. Kussmann,  A. W. Lange,  A. Behn,  Jia Deng,  Xintian Feng,  D. Ghosh,  
 M. Goldey,  P. R. Horn,  L. D. Jacobson,  I. Kaliman,  T. Kus,  A. Landau,  
 Jie Liu,  E. I. Proynov,  R. M. Richard,  R. P. Steele,  E. J. Sundstrom,  
 H. L. Woodcock III,  P. M. Zimmerman,  D. Zuev,  B. Albrecht,  E. Alguire,  
 S. A. Baeppler,  D. Barton,  Z. Benda,  Y. A. Bernard,  E. J. Berquist,  
 K. B. Bravaya,  H. Burton,  D. Casanova,  Chun-Min Chang,  Yunqing Chen,  
 A. Chien,  K. D. Closser,  M. P. Coons,  S. Coriani,  S. Dasgupta,  
 A. L. Dempwolff,  M. Diedenhofen,  Hainam Do,  R. G. Edgar,  Po-Tung Fang,  
 S. Faraji,  S. Fatehi,  Qingguo Feng,  K. D. Fenk,  J. Fosso-Tande,  
 Qinghui Ge,  A. Ghysels,  G. Gidofalvi,  J. Gomes,  J. Gonthier,  A. Gunina,  
 D. Hait,  M. W. D. Hanson-Heine,  P. H. P. Harbach,  A. W. Hauser,  
 J. E. Herr,  E. G. Hohenstein,  Z. C. Holden,  Kerwin Hui,  B. C. Huynh,  
 T.-C. Jagau,  Hyunjun Ji,  B. Kaduk,  K. Khistyaev,  Jaehoon Kim,  
 P. Klunzinger,  K. Koh,  D. Kosenkov,  L. Koulias,  T. Kowalczyk,  
 C. M. Krauter,  A. Kunitsa,  Ka Un Lao,  A. Laurent,  K. V. Lawler,  
 Joonho Lee,  D. Lefrancois,  S. Lehtola,  D. S. Levine,  Yi-Pei Li,  
 You-Sheng Lin,  Fenglai Liu,  E. Livshits,  A. Luenser,  P. Manohar,  
 E. Mansoor,  S. F. Manzer,  Shan-Ping Mao,  Yuezhi Mao,  N. Mardirossian,  
 A. V. Marenich,  T. Markovich,  L. A. Martinez-Martinez,  S. A. Maurer,  
 N. J. Mayhall,  S. C. McKenzie,  J.-M. Mewes,  A. F. Morrison,  
 J. W. Mullinax,  K. Nanda,  T. S. Nguyen-Beck,  R. Olivares-Amaya,  
 J. A. Parkhill,  T. M. Perrine,  F. Plasser,  P. Pokhilko,  S. Prager,  
 A. Prociuk,  E. Ramos,  D. R. Rehn,  F. Rob,  M. Schneider,  N. Sergueev,  
 S. M. Sharada,  S. Sharma,  D. W. Small,  T. Stauch,  T. Stein,  
 Yu-Chuan Su,  A. J. W. Thom,  A. Tkatchenko,  T. Tsuchimochi,  N. M. Tubman,  
 L. Vogt,  M. L. Vidal,  O. Vydrov,  M. A. Watson,  J. Wenzel,  
 M. de Wergifosse,  T. A. Wesolowski,  A. White,  J. Witte,  A. Yamada,  
 Jun Yang,  K. Yao,  S. Yeganeh,  S. R. Yost,  Zhi-Qiang You,  A. Zech,  
 Igor Ying Zhang,  Xing Zhang,  Yan Zhao,  Ying Zhu,  B. R. Brooks,  
 G. K. L. Chan,  C. J. Cramer,  M. S. Gordon,  W. J. Hehre,  A. Klamt,  
 M. W. Schmidt,  C. D. Sherrill,  D. G. Truhlar,  A. Aspuru-Guzik,  R. Baer,  
 A. T. Bell,  N. A. Besley,  Jeng-Da Chai,  R. A. DiStasio Jr.,  A. Dreuw,  
 B. D. Dunietz,  T. R. Furlani,  Chao-Ping Hsu,  Yousung Jung,  Jing Kong,  
 D. S. Lambrecht,  WanZhen Liang,  C. Ochsenfeld,  V. A. Rassolov,  
 L. V. Slipchenko,  J. E. Subotnik,  T. Van Voorhis,  J. M. Herbert,  
 A. I. Krylov,  P. M. W. Gill,  M. Head-Gordon

 Contributors to earlier versions of Q-Chem not listed above: 
 R. D. Adamson,  B. Austin,  J. Baker,  G. J. O. Beran,  K. Brandhorst,  
 S. T. Brown,  E. F. C. Byrd,  A. K. Chakraborty,  C.-L. Cheng,  
 Siu Hung Chien,  D. M. Chipman,  D. L. Crittenden,  H. Dachsel,  
 R. J. Doerksen,  A. D. Dutoi,  L. Fusti-Molnar,  W. A. Goddard III,  
 A. Golubeva-Zadorozhnaya,  S. R. Gwaltney,  G. Hawkins,  A. Heyden,  
 S. Hirata,  G. Kedziora,  F. J. Keil,  C. Kelley,  Jihan Kim,  R. A. King,  
 R. Z. Khaliullin,  P. P. Korambath,  W. Kurlancheek,  A. M. Lee,  M. S. Lee,  
 S. V. Levchenko,  Ching Yeh Lin,  D. Liotard,  R. C. Lochan,  I. Lotan,  
 P. E. Maslen,  N. Nair,  D. P. O'Neill,  D. Neuhauser,  E. Neuscamman,  
 C. M. Oana,  R. Olson,  B. Peters,  R. Peverati,  P. A. Pieniazek,  
 Y. M. Rhee,  J. Ritchie,  M. A. Rohrdanz,  E. Rosta,  N. J. Russ,  
 H. F. Schaefer III,  N. E. Schultz,  N. Shenvi,  A. C. Simmonett,  A. Sodt,  
 D. Stuck,  K. S. Thanthiriwatte,  V. Vanovschi,  Tao Wang,  A. Warshel,  
 C. F. Williams,  Q. Wu,  X. Xu,  W. Zhang

 Please cite Q-Chem as follows:
 Y. Shao et al., Mol. Phys. 113, 184-215 (2015)
 DOI: 10.1080/00268976.2014.952696

 Q-Chem 5.1.0 for Intel X86 EM64T Linux

 Parts of Q-Chem use Armadillo 8.300.2 (Tropical Shenanigans).
 http://arma.sourceforge.net/

 Q-Chem begins on Wed May 15 10:21:29 2019  

Host: 
0

     Scratch files written to /scratch/xuedong/qchem16181//
 May118 |scratch|qcdevops|jenkins|workspace|build_RNUM 6581   
Processing $rem in /home/qwang/software/qchem5.1/config/preferences.
 MEM_TOTAL  2000 
Core orbitals will be frozen

Checking the input file for inconsistencies... 	...done.

--------------------------------------------------------------
User input:
--------------------------------------------------------------
$molecule
0 1
Si         1.913   0.000  -0.000
Si        -0.049   0.000  -0.000
H        -0.496   1.218  -0.000
H        -0.496  -0.609   1.055
H        -0.496  -0.609  -1.055
H         2.360   0.609   1.055
H         2.360   0.609  -1.055
H         2.360  -1.218   0.000
$end

$rem
JOBTYPE  =  opt
METHOD  =  MP2
BASIS  =  6-311G+(d,p)
SCF_MAX_CYCLES  =  200
GEOM_OPT_MAX_CYCLES  =  300
GEOM_OPT_TOL_DISPLACEMENT = 120
GEOM_OPT_TOL_ENERGY = 10
GEOM_OPT_TOL_GRADIENT = 20
$end
--------------------------------------------------------------
 ----------------------------------------------------------------
             Standard Nuclear Orientation (Angstroms)
    I     Atom           X                Y                Z
 ----------------------------------------------------------------
    1      Si     -0.9810000000     0.0000000000    -0.0000000000
    2      Si      0.9810000000    -0.0000000000     0.0000000000
    3      H       1.4280000000    -1.2180000000    -0.0000000000
    4      H       1.4280000000     0.6090000000     1.0550000000
    5      H       1.4280000000     0.6090000000    -1.0550000000
    6      H      -1.4280000000    -0.6090000000     1.0550000000
    7      H      -1.4280000000    -0.6090000000    -1.0550000000
    8      H      -1.4280000000     1.2180000000     0.0000000000
 ----------------------------------------------------------------
 Molecular Point Group                 C2h   NOp =  4
 Largest Abelian Subgroup              C2h   NOp =  4
 Nuclear Repulsion Energy =   106.5388246691 hartrees
 There are       17 alpha and       17 beta electrons
 Requested basis set is 6-311+G(d,p)
 There are 50 shells and 96 basis functions

 Total QAlloc Memory Limit   2000 MB
 Mega-Array Size       188 MB
 MEM_STATIC part       192 MB
 A cutoff of  1.0D-11 yielded   1244 shell pairs
 There are      4685 function pairs (      4890 Cartesian)
 
 -------------------------------------------------------
 OpenMP Integral Computing Module                       
 Release: version 1.0, May 2013, Q-Chem Inc. Pittsburgh 
 -------------------------------------------------------
 Integral Job Info:
 Integral job number is                      11
 Integral operator is                         1
 short-range coefficients                     0
 long-range coefficients              100000000
 Omega coefficients                           0
 if combine SR and LR in K                    0
 Integral screening is                        0
 Integral computing path is                   2
 max size of driver memory is            800000
 size of driver memory is                593474
 size of scratch memory is              4204008
 max col of scratch BK array               1296
 max len of scratch array in speh3          155
 max len of scratch index in speh4           18
 max int batch size is                      520
 min int batch size is                       52
 fixed nKL is                                52
 max L of basis functions is                  2
 order of int derivative is                   0
 number of shells is                         50
 number of basis is                          98
 number of cartesian basis is                98
 number of contracted shell pairs          1244
 number of primitive shell pairs           2885
 maxK2 (contraction) of shell pair           36
 max number of K2 of shell pair               1
 max number of CS2 of shell pair            252
 max number of PS2 of shell pair            438
 mem total for path MDJ                  512638
 -------------------------------------------------------
 Smallest overlap matrix eigenvalue = 4.50E-04

 Scale SEOQF with 1.000000e-01/1.000000e-01/1.000000e-01

 Standard Electronic Orientation quadrupole field applied
 Nucleus-field energy     =     0.0000000012 hartrees
 Guess from superposition of atomic densities
 Warning:  Energy on first SCF cycle will be non-variational
 SAD guess density has 34.000000 electrons

 -----------------------------------------------------------------------
  General SCF calculation program by
  Eric Jon Sundstrom, Paul Horn, Yuezhi Mao, Dmitri Zuev, Alec White,
  David Stuck, Shaama M.S., Shane Yost, Joonho Lee, David Small,
  Daniel Levine, Susi Lehtola, Hugh Burton, Evgeny Epifanovsky
 -----------------------------------------------------------------------
 Hartree-Fock
 using 4 threads for integral computing
 -------------------------------------------------------
 OpenMP Integral computing Module                
 Release: version 1.0, May 2013, Q-Chem Inc. Pittsburgh 
 -------------------------------------------------------
 A restricted SCF calculation will be
 performed using DIIS
 SCF converges when DIIS error is below 1.0e-08
 ---------------------------------------
  Cycle       Energy         DIIS error
 ---------------------------------------
    1    -582.2067034406      7.25e-02  
    2    -581.1690118448      3.38e-03  
    3    -581.1972597538      9.70e-04  
    4    -581.2005474384      1.74e-04  
    5    -581.2006773983      3.84e-05  
    6    -581.2006833083      6.90e-06  
    7    -581.2006834521      1.81e-06  
    8    -581.2006834608      2.93e-07  
    9    -581.2006834611      5.55e-08  
   10    -581.2006834612      6.86e-09  Convergence criterion met
 ---------------------------------------
 SCF time:   CPU 3.29s  wall 1.00s 
 SCF   energy in the final basis set =     -581.2006834612
 Total energy in the final basis set =     -581.2006834612
 
 Components of the MP2 correlation energy:
        aaaa  correlation energy =        -0.0161410103 au
        abab  correlation energy =        -0.1958819551 au
        bbbb  correlation energy =        -0.0161410103 au
        non-Brillouin singles    =        -0.0000000000 au

 Total  MP2   correlation energy =                    -0.22816398 au
        MP2         total energy =                  -581.42884744 au
  Entering Z-vector solver.
   1         0           1      0.000121    0.000121
   2         0           1      0.000028    0.000028
   3         0           1      0.000005    0.000005
   4         1           0      0.000000    0.000000    Roots Converged
 
 --------------------------------------------------------------
             Orbital Energies (a.u.) and Symmetries
 --------------------------------------------------------------
 
 Alpha MOs, Restricted
 -- Occupied --                  
-68.697 -68.697  -6.072  -6.071  -4.180  -4.177  -4.177  -4.176
  1 Ag    1 Bu    2 Ag    2 Bu    3 Ag    3 Bu    1 Au    4 Ag                 
 -4.176  -4.175  -0.828  -0.711  -0.540  -0.540  -0.491  -0.491
  1 Bg    4 Bu    5 Ag    5 Bu    2 Au    6 Bu    2 Bg    6 Ag                 
 -0.425
  7 Ag                                                                         
 -- Virtual --                   
  0.063   0.069   0.077   0.077   0.094   0.101   0.101   0.150
  7 Bu    8 Ag    8 Bu    3 Au    9 Ag   10 Ag    3 Bg    9 Bu                 
  0.163   0.163   0.171   0.171   0.208   0.246   0.323   0.357
 10 Bu    4 Au   11 Ag    4 Bg   11 Bu   12 Ag   12 Bu    5 Au                 
  0.357   0.363   0.390   0.390   0.475   0.475   0.478   0.545
 13 Bu   13 Ag   14 Ag    5 Bg   14 Bu    6 Au   15 Bu   15 Ag                 
  0.599   0.599   0.680   0.701   0.701   0.714   0.766   0.963
 16 Ag    6 Bg   17 Ag   16 Bu    7 Au   17 Bu   18 Bu    7 Bg                 
  0.963   0.986   1.189   1.189   1.272   1.272   1.411   1.411
 18 Ag   19 Ag    8 Bg   20 Ag    8 Au   19 Bu   20 Bu    9 Au                 
  1.420   1.420   1.431   1.536   1.537   1.603   1.617   1.671
 21 Ag    9 Bg   21 Bu   10 Au   10 Bg   22 Ag   22 Bu   23 Bu                 
  1.671   1.855   1.855   1.964   2.025   2.037   2.037   2.081
 11 Au   11 Bg   23 Ag   24 Ag   24 Bu   25 Bu   12 Au   25 Ag                 
  2.081   2.369   2.507   2.649   2.649   2.734   2.735   2.991
 12 Bg   26 Ag   26 Bu   13 Bg   27 Ag   13 Au   27 Bu   28 Ag                 
  2.991   2.994   2.994   3.136   3.170   6.088   6.314  12.215
 14 Bg   28 Bu   14 Au   29 Ag   29 Bu   30 Ag   30 Bu   31 Ag                 
 12.546  12.546  12.562  12.565  12.565 143.962 144.208
 15 Bg   32 Ag   31 Bu   15 Au   32 Bu   33 Ag   33 Bu                         
 
 Beta MOs, Restricted
 -- Occupied --                  
-68.697 -68.697  -6.072  -6.071  -4.180  -4.177  -4.177  -4.176
  1 Ag    1 Bu    2 Ag    2 Bu    3 Ag    3 Bu    1 Au    4 Ag                 
 -4.176  -4.175  -0.828  -0.711  -0.540  -0.540  -0.491  -0.491
  1 Bg    4 Bu    5 Ag    5 Bu    2 Au    6 Bu    2 Bg    6 Ag                 
 -0.425
  7 Ag                                                                         
 -- Virtual --                   
  0.063   0.069   0.077   0.077   0.094   0.101   0.101   0.150
  7 Bu    8 Ag    8 Bu    3 Au    9 Ag   10 Ag    3 Bg    9 Bu                 
  0.163   0.163   0.171   0.171   0.208   0.246   0.323   0.357
 10 Bu    4 Au   11 Ag    4 Bg   11 Bu   12 Ag   12 Bu    5 Au                 
  0.357   0.363   0.390   0.390   0.475   0.475   0.478   0.545
 13 Bu   13 Ag   14 Ag    5 Bg   14 Bu    6 Au   15 Bu   15 Ag                 
  0.599   0.599   0.680   0.701   0.701   0.714   0.766   0.963
 16 Ag    6 Bg   17 Ag   16 Bu    7 Au   17 Bu   18 Bu    7 Bg                 
  0.963   0.986   1.189   1.189   1.272   1.272   1.411   1.411
 18 Ag   19 Ag    8 Bg   20 Ag    8 Au   19 Bu   20 Bu    9 Au                 
  1.420   1.420   1.431   1.536   1.537   1.603   1.617   1.671
 21 Ag    9 Bg   21 Bu   10 Au   10 Bg   22 Ag   22 Bu   23 Bu                 
  1.671   1.855   1.855   1.964   2.025   2.037   2.037   2.081
 11 Au   11 Bg   23 Ag   24 Ag   24 Bu   25 Bu   12 Au   25 Ag                 
  2.081   2.369   2.507   2.649   2.649   2.734   2.735   2.991
 12 Bg   26 Ag   26 Bu   13 Bg   27 Ag   13 Au   27 Bu   28 Ag                 
  2.991   2.994   2.994   3.136   3.170   6.088   6.314  12.215
 14 Bg   28 Bu   14 Au   29 Ag   29 Bu   30 Ag   30 Bu   31 Ag                 
 12.546  12.546  12.562  12.565  12.565 143.962 144.208
 15 Bg   32 Ag   31 Bu   15 Au   32 Bu   33 Ag   33 Bu                         
 --------------------------------------------------------------
 
          Ground-State Mulliken Net Atomic Charges

     Atom                 Charge (a.u.)
  ----------------------------------------
      1 Si                    0.486285
      2 Si                    0.486285
      3 H                    -0.162096
      4 H                    -0.162095
      5 H                    -0.162095
      6 H                    -0.162095
      7 H                    -0.162095
      8 H                    -0.162096
  ----------------------------------------
  Sum of atomic charges =     0.000000

 -----------------------------------------------------------------
                    Cartesian Multipole Moments
 -----------------------------------------------------------------
    Charge (ESU x 10^10)
                 0.0000
    Dipole Moment (Debye)
         X       0.0000      Y      -0.0000      Z      -0.0000
       Tot       0.0000
    Quadrupole Moments (Debye-Ang)
        XX     -31.2082     XY      -0.0000     YY     -29.8967
        XZ       0.0000     YZ       0.0000     ZZ     -29.8971
    Octopole Moments (Debye-Ang^2)
       XXX      -0.0000    XXY      -0.0000    XYY      -0.0000
       YYY       0.0000    XXZ      -0.0000    XYZ      -0.0000
       YYZ      -0.0000    XZZ      -0.0000    YZZ      -0.0000
       ZZZ      -0.0000
    Hexadecapole Moments (Debye-Ang^3)
      XXXX    -250.1608   XXXY      -0.0019   XXYY     -57.7670
      XYYY       2.9408   YYYY     -68.6472   XXXZ       0.0000
      XXYZ       0.0000   XYYZ       0.0000   YYYZ       0.0000
      XXZZ     -57.7698   XYZZ      -2.9432   YYZZ     -22.8843
      XZZZ       0.0000   YZZZ       0.0000   ZZZZ     -68.6591
 -----------------------------------------------------------------
 DrvMan is completing analytic gradient of the MP2 energy
 MP2 relaxed dipole moment
            1
    1   0.0000000
    2  -0.0000000
    3  -0.0000000
	Magnitude:	 0.000 au	 0.000 Debye
 MP2 energy read as -581.428847
 Full Analytical Gradient of MP2 Energy (in au.)
             1             2             3             4             5
    1    0.06635907   -0.06635907   -0.03723852   -0.03719919   -0.03719919
    2    0.00010771   -0.00010771    0.09716671   -0.04852958   -0.04852958
    3    0.00000000   -0.00000000    0.00000000   -0.08405140    0.08405140
             6             7             8
    1    0.03719919    0.03719919    0.03723852
    2    0.04852958    0.04852958   -0.09716671
    3   -0.08405140    0.08405140   -0.00000000
 Gradient time:  CPU 0.11 s  wall 0.10 s
 Geometry Optimization Parameters
   NAtoms,    NIC,     NZ,  NCons,   NDum,   NFix, NCnnct, MaxDiis
        8      44       0       0       0       0       0       0


** GEOMETRY OPTIMIZATION IN DELOCALIZED INTERNAL COORDINATES **
   Searching for a Minimum

   Optimization Cycle:   1

                       Coordinates (Angstroms)
     ATOM                X               Y               Z
      1  Si       -0.9810000000    0.0000000000    0.0000000000
      2  Si        0.9810000000    0.0000000000    0.0000000000
      3  H         1.4280000000   -1.2180000000    0.0000000000
      4  H         1.4280000000    0.6090000000    1.0550000000
      5  H         1.4280000000    0.6090000000   -1.0550000000
      6  H        -1.4280000000   -0.6090000000    1.0550000000
      7  H        -1.4280000000   -0.6090000000   -1.0550000000
      8  H        -1.4280000000    1.2180000000    0.0000000000
   Point Group: c2h   Number of degrees of freedom:     6


   Energy is   -581.428847437


 Attempting to Generate Delocalized Internal Coordinates

  6 Hessian modes will be used to form the next step
  Hessian Eigenvalues:
     0.085707    0.160000    0.160000    0.301289    0.301429    0.393370

 Minimum Search - Taking Simple RFO Step
 Searching for Lamda that Minimizes Along All modes
 Value Taken    Lamda =  -0.18737729
 Calculated Step too Large.  Step scaled by  0.496013
 Step Taken.  Stepsize is  0.300000

                             Maximum     Tolerance    Cnvgd?
         Gradient           0.279478      0.000020      NO
         Displacement       0.274437      0.000120      NO
         Energy change     *********      0.000000      NO


 New Cartesian Coordinates Obtained by Inverse Iteration

 Displacement from previous Coordinates is:  0.389847
 ----------------------------------------------------------------
             Standard Nuclear Orientation (Angstroms)
    I     Atom           X                Y                Z
 ----------------------------------------------------------------
    1      Si     -1.0212241579    -0.0000051918     0.0000000000
    2      Si      1.0212241579     0.0000051918     0.0000000000
    3      H       1.4906899321    -1.2692603724     0.0000000000
    4      H       1.4906740014     0.6346216075     1.0993553824
    5      H       1.4906740014     0.6346216075    -1.0993553824
    6      H      -1.4906740014    -0.6346216075     1.0993553824
    7      H      -1.4906740014    -0.6346216075    -1.0993553824
    8      H      -1.4906899321     1.2692603724     0.0000000000
 ----------------------------------------------------------------
 Molecular Point Group                 C2h   NOp =  4
 Largest Abelian Subgroup              C2h   NOp =  4
 Nuclear Repulsion Energy =   102.2496201454 hartrees
 There are       17 alpha and       17 beta electrons
 Applying Cartesian multipole field
    Component          Value
    ---------          -----
     (2,0,0)        1.00000E-11
     (0,2,0)        2.00000E-11
     (0,0,2)       -3.00000E-11
 Nucleus-field energy     =     0.0000000013 hartrees
 Requested basis set is 6-311+G(d,p)
 There are 50 shells and 96 basis functions
 A cutoff of  1.0D-11 yielded   1238 shell pairs
 There are      4667 function pairs (      4872 Cartesian)
 Smallest overlap matrix eigenvalue = 5.43E-04
 Guess MOs from SCF MO coefficient file
 Reading MOs from coefficient file
 Reading MOs from coefficient file

 -----------------------------------------------------------------------
  General SCF calculation program by
  Eric Jon Sundstrom, Paul Horn, Yuezhi Mao, Dmitri Zuev, Alec White,
  David Stuck, Shaama M.S., Shane Yost, Joonho Lee, David Small,
  Daniel Levine, Susi Lehtola, Hugh Burton, Evgeny Epifanovsky
 -----------------------------------------------------------------------
 Hartree-Fock
 using 4 threads for integral computing
 -------------------------------------------------------
 OpenMP Integral computing Module                
 Release: version 1.0, May 2013, Q-Chem Inc. Pittsburgh 
 -------------------------------------------------------
 A restricted SCF calculation will be
 performed using DIIS
 SCF converges when DIIS error is below 1.0e-08
 ---------------------------------------
  Cycle       Energy         DIIS error
 ---------------------------------------
    1    -581.2005613936      5.45e-03  
    2    -581.2793695663      4.56e-04  
    3    -581.2795099778      8.46e-05  
    4    -581.2795155649      1.49e-05  
    5    -581.2795162156      2.55e-06  
    6    -581.2795162370      4.65e-07  
    7    -581.2795162377      1.26e-07  
    8    -581.2795162378      2.00e-08  
    9    -581.2795162378      3.62e-09  Convergence criterion met
 ---------------------------------------
 SCF time:   CPU 3.90s  wall 1.00s 
 SCF   energy in the final basis set =     -581.2795162378
 Total energy in the final basis set =     -581.2795162378
 
 Components of the MP2 correlation energy:
        aaaa  correlation energy =        -0.0154070676 au
        abab  correlation energy =        -0.1935051123 au
        bbbb  correlation energy =        -0.0154070676 au
        non-Brillouin singles    =        -0.0000000000 au

 Total  MP2   correlation energy =                    -0.22431925 au
        MP2         total energy =                  -581.50383549 au
  Entering Z-vector solver.
   1         0           1      0.000128    0.000128
   2         0           1      0.000029    0.000029
   3         0           1      0.000005    0.000005
   4         1           0      0.000000    0.000000    Roots Converged
 
 --------------------------------------------------------------
             Orbital Energies (a.u.) and Symmetries
 --------------------------------------------------------------
 
 Alpha MOs, Restricted
 -- Occupied --                  
-68.720 -68.720  -6.086  -6.085  -4.193  -4.191  -4.191  -4.191
  1 Ag    1 Bu    2 Ag    2 Bu    3 Ag    3 Bu    1 Au    4 Ag                 
 -4.191  -4.190  -0.809  -0.700  -0.529  -0.529  -0.485  -0.485
  1 Bg    4 Bu    5 Ag    5 Bu    2 Au    6 Bu    2 Bg    6 Ag                 
 -0.424
  7 Ag                                                                         
 -- Virtual --                   
  0.063   0.070   0.077   0.077   0.093   0.101   0.101   0.149
  7 Bu    8 Ag    8 Bu    3 Au    9 Ag   10 Ag    3 Bg    9 Bu                 
  0.154   0.154   0.168   0.168   0.204   0.244   0.309   0.358
 10 Bu    4 Au   11 Ag    4 Bg   11 Bu   12 Ag   12 Bu   13 Ag                 
  0.360   0.360   0.390   0.390   0.467   0.475   0.475   0.536
  5 Au   13 Bu   14 Ag    5 Bg   14 Bu   15 Bu    6 Au   15 Ag                 
  0.589   0.589   0.677   0.699   0.699   0.703   0.736   0.937
 16 Ag    6 Bg   17 Ag   16 Bu    7 Au   17 Bu   18 Bu    7 Bg                 
  0.937   0.945   1.162   1.162   1.220   1.220   1.402   1.420
 18 Ag   19 Ag    8 Bg   20 Ag    8 Au   19 Bu   20 Bu   21 Bu                 
  1.420   1.424   1.424   1.532   1.532   1.560   1.612   1.654
  9 Au   21 Ag    9 Bg   10 Au   10 Bg   22 Bu   22 Ag   23 Bu                 
  1.654   1.827   1.827   1.916   1.979   1.979   2.009   2.015
 11 Au   11 Bg   23 Ag   24 Ag   24 Bu   12 Au   25 Bu   25 Ag                 
  2.015   2.301   2.414   2.568   2.568   2.632   2.632   2.958
 12 Bg   26 Ag   26 Bu   13 Bg   27 Ag   13 Au   27 Bu   28 Bu                 
  2.958   2.985   2.985   3.093   3.153   6.088   6.273  12.235
 14 Au   28 Ag   14 Bg   29 Ag   29 Bu   30 Ag   30 Bu   31 Ag                 
 12.452  12.475  12.475  12.491  12.491 143.937 144.139
 31 Bu   15 Bg   32 Ag   15 Au   32 Bu   33 Ag   33 Bu                         
 
 Beta MOs, Restricted
 -- Occupied --                  
-68.720 -68.720  -6.086  -6.085  -4.193  -4.191  -4.191  -4.191
  1 Ag    1 Bu    2 Ag    2 Bu    3 Ag    3 Bu    1 Au    4 Ag                 
 -4.191  -4.190  -0.809  -0.700  -0.529  -0.529  -0.485  -0.485
  1 Bg    4 Bu    5 Ag    5 Bu    2 Au    6 Bu    2 Bg    6 Ag                 
 -0.424
  7 Ag                                                                         
 -- Virtual --                   
  0.063   0.070   0.077   0.077   0.093   0.101   0.101   0.149
  7 Bu    8 Ag    8 Bu    3 Au    9 Ag   10 Ag    3 Bg    9 Bu                 
  0.154   0.154   0.168   0.168   0.204   0.244   0.309   0.358
 10 Bu    4 Au   11 Ag    4 Bg   11 Bu   12 Ag   12 Bu   13 Ag                 
  0.360   0.360   0.390   0.390   0.467   0.475   0.475   0.536
  5 Au   13 Bu   14 Ag    5 Bg   14 Bu   15 Bu    6 Au   15 Ag                 
  0.589   0.589   0.677   0.699   0.699   0.703   0.736   0.937
 16 Ag    6 Bg   17 Ag   16 Bu    7 Au   17 Bu   18 Bu    7 Bg                 
  0.937   0.945   1.162   1.162   1.220   1.220   1.402   1.420
 18 Ag   19 Ag    8 Bg   20 Ag    8 Au   19 Bu   20 Bu   21 Bu                 
  1.420   1.424   1.424   1.532   1.532   1.560   1.612   1.654
  9 Au   21 Ag    9 Bg   10 Au   10 Bg   22 Bu   22 Ag   23 Bu                 
  1.654   1.827   1.827   1.916   1.979   1.979   2.009   2.015
 11 Au   11 Bg   23 Ag   24 Ag   24 Bu   12 Au   25 Bu   25 Ag                 
  2.015   2.301   2.414   2.568   2.568   2.632   2.632   2.958
 12 Bg   26 Ag   26 Bu   13 Bg   27 Ag   13 Au   27 Bu   28 Bu                 
  2.958   2.985   2.985   3.093   3.153   6.088   6.273  12.235
 14 Au   28 Ag   14 Bg   29 Ag   29 Bu   30 Ag   30 Bu   31 Ag                 
 12.452  12.475  12.475  12.491  12.491 143.937 144.139
 31 Bu   15 Bg   32 Ag   15 Au   32 Bu   33 Ag   33 Bu                         
 --------------------------------------------------------------
 
          Ground-State Mulliken Net Atomic Charges

     Atom                 Charge (a.u.)
  ----------------------------------------
      1 Si                    0.463917
      2 Si                    0.463917
      3 H                    -0.154638
      4 H                    -0.154640
      5 H                    -0.154640
      6 H                    -0.154640
      7 H                    -0.154640
      8 H                    -0.154638
  ----------------------------------------
  Sum of atomic charges =    -0.000000

 -----------------------------------------------------------------
                    Cartesian Multipole Moments
 -----------------------------------------------------------------
    Charge (ESU x 10^10)
                 0.0000
    Dipole Moment (Debye)
         X       0.0000      Y      -0.0000      Z       0.0000
       Tot       0.0000
    Quadrupole Moments (Debye-Ang)
        XX     -31.7517     XY       0.0001     YY     -30.4551
        XZ       0.0000     YZ       0.0000     ZZ     -30.4554
    Octopole Moments (Debye-Ang^2)
       XXX       0.0000    XXY      -0.0000    XYY       0.0000
       YYY      -0.0000    XXZ      -0.0000    XYZ      -0.0000
       YYZ      -0.0000    XZZ       0.0000    YZZ      -0.0000
       ZZZ      -0.0000
    Hexadecapole Moments (Debye-Ang^3)
      XXXX    -273.5574   XXXY      -0.0012   XXYY     -62.7233
      XYYY       2.9818   YYYY     -73.4206   XXXZ       0.0000
      XXYZ       0.0000   XYYZ       0.0000   YYYZ       0.0000
      XXZZ     -62.7255   XYZZ      -2.9836   YYZZ     -24.4752
      XZZZ       0.0000   YZZZ       0.0000   ZZZZ     -73.4305
 -----------------------------------------------------------------
 DrvMan is completing analytic gradient of the MP2 energy
 MP2 relaxed dipole moment
            1
    1   0.0000000
    2  -0.0000000
    3   0.0000000
	Magnitude:	 0.000 au	 0.000 Debye
 MP2 energy read as -581.503835
 Full Analytical Gradient of MP2 Energy (in au.)
             1             2             3             4             5
    1    0.05097382   -0.05097382   -0.02289824   -0.02287817   -0.02287817
    2    0.00005506   -0.00005506    0.05920303   -0.02957439   -0.02957439
    3   -0.00000000    0.00000000    0.00000000   -0.05121690    0.05121690
             6             7             8
    1    0.02287817    0.02287817    0.02289824
    2    0.02957439    0.02957439   -0.05920303
    3   -0.05121690    0.05121690    0.00000000
 Gradient time:  CPU 0.11 s  wall 0.10 s
 Geometry Optimization Parameters
   NAtoms,    NIC,     NZ,  NCons,   NDum,   NFix, NCnnct, MaxDiis
        8      44       0       0       0       0       0       0

 Cartesian Hessian Update
 Hessian Updated using BFGS Update


** GEOMETRY OPTIMIZATION IN DELOCALIZED INTERNAL COORDINATES **
   Searching for a Minimum

   Optimization Cycle:   2

                       Coordinates (Angstroms)
     ATOM                X               Y               Z
      1  Si       -1.0212241579   -0.0000051918    0.0000000000
      2  Si        1.0212241579    0.0000051918    0.0000000000
      3  H         1.4906899321   -1.2692603724    0.0000000000
      4  H         1.4906740014    0.6346216075    1.0993553824
      5  H         1.4906740014    0.6346216075   -1.0993553824
      6  H        -1.4906740014   -0.6346216075    1.0993553824
      7  H        -1.4906740014   -0.6346216075   -1.0993553824
      8  H        -1.4906899321    1.2692603724    0.0000000000
   Point Group: c2h   Number of degrees of freedom:     6


   Energy is   -581.503835485

 Hessian Updated using BFGS Update

  6 Hessian modes will be used to form the next step
  Hessian Eigenvalues:
     0.085707    0.160000    0.160035    0.301382    0.364741    0.384086

 Minimum Search - Taking Simple RFO Step
 Searching for Lamda that Minimizes Along All modes
 Value Taken    Lamda =  -0.08250946
 Calculated Step too Large.  Step scaled by  0.713068
 Step Taken.  Stepsize is  0.300000

                             Maximum     Tolerance    Cnvgd?
         Gradient           0.173635      0.000020      NO
         Displacement       0.264014      0.000120      NO
         Energy change     -0.074988      0.000000      NO


 New Cartesian Coordinates Obtained by Inverse Iteration

 Displacement from previous Coordinates is:  0.410447
 ----------------------------------------------------------------
             Standard Nuclear Orientation (Angstroms)
    I     Atom           X                Y                Z
 ----------------------------------------------------------------
    1      Si     -1.0699781252    -0.0000085006     0.0000000000
    2      Si      1.0699781252     0.0000085006     0.0000000000
    3      H       1.5606497933    -1.3159173763     0.0000000000
    4      H       1.5606418598     0.6579523090     1.1397279543
    5      H       1.5606418598     0.6579523090    -1.1397279543
    6      H      -1.5606418598    -0.6579523090     1.1397279543
    7      H      -1.5606418598    -0.6579523090    -1.1397279543
    8      H      -1.5606497933     1.3159173763     0.0000000000
 ----------------------------------------------------------------
 Molecular Point Group                 C2h   NOp =  4
 Largest Abelian Subgroup              C2h   NOp =  4
 Nuclear Repulsion Energy =    97.9482836901 hartrees
 There are       17 alpha and       17 beta electrons
 Applying Cartesian multipole field
    Component          Value
    ---------          -----
     (2,0,0)        1.00000E-11
     (0,2,0)        2.00000E-11
     (0,0,2)       -3.00000E-11
 Nucleus-field energy     =     0.0000000015 hartrees
 Requested basis set is 6-311+G(d,p)
 There are 50 shells and 96 basis functions
 A cutoff of  1.0D-11 yielded   1226 shell pairs
 There are      4643 function pairs (      4848 Cartesian)
 Smallest overlap matrix eigenvalue = 6.74E-04
 Guess MOs from SCF MO coefficient file
 Reading MOs from coefficient file
 Reading MOs from coefficient file

 -----------------------------------------------------------------------
  General SCF calculation program by
  Eric Jon Sundstrom, Paul Horn, Yuezhi Mao, Dmitri Zuev, Alec White,
  David Stuck, Shaama M.S., Shane Yost, Joonho Lee, David Small,
  Daniel Levine, Susi Lehtola, Hugh Burton, Evgeny Epifanovsky
 -----------------------------------------------------------------------
 Hartree-Fock
 using 4 threads for integral computing
 -------------------------------------------------------
 OpenMP Integral computing Module                
 Release: version 1.0, May 2013, Q-Chem Inc. Pittsburgh 
 -------------------------------------------------------
 A restricted SCF calculation will be
 performed using DIIS
 SCF converges when DIIS error is below 1.0e-08
 ---------------------------------------
  Cycle       Energy         DIIS error
 ---------------------------------------
    1    -581.2447443540      4.69e-03  
    2    -581.3273336444      4.23e-04  
    3    -581.3275238586      7.19e-05  
    4    -581.3275306181      1.37e-05  
    5    -581.3275311835      2.98e-06  
    6    -581.3275312067      7.43e-07  
    7    -581.3275312083      1.51e-07  
    8    -581.3275312084      2.33e-08  
    9    -581.3275312084      3.27e-09  Convergence criterion met
 ---------------------------------------
 SCF time:   CPU 3.65s  wall 1.00s 
 SCF   energy in the final basis set =     -581.3275312084
 Total energy in the final basis set =     -581.3275312084
 
 Components of the MP2 correlation energy:
        aaaa  correlation energy =        -0.0147541240 au
        abab  correlation energy =        -0.1915188919 au
        bbbb  correlation energy =        -0.0147541240 au
        non-Brillouin singles    =        -0.0000000000 au

 Total  MP2   correlation energy =                    -0.22102714 au
        MP2         total energy =                  -581.54855835 au
  Entering Z-vector solver.
   1         0           1      0.000134    0.000134
   2         0           1      0.000030    0.000030
   3         0           1      0.000005    0.000005
   4         1           0      0.000000    0.000000    Roots Converged
 
 --------------------------------------------------------------
             Orbital Energies (a.u.) and Symmetries
 --------------------------------------------------------------
 
 Alpha MOs, Restricted
 -- Occupied --                  
-68.741 -68.741  -6.100  -6.099  -4.207  -4.206  -4.206  -4.206
  1 Ag    1 Bu    2 Ag    2 Bu    3 Ag    1 Au    3 Bu    1 Bg                 
 -4.206  -4.205  -0.791  -0.692  -0.517  -0.517  -0.480  -0.480
  4 Ag    4 Bu    5 Ag    5 Bu    2 Au    6 Bu    2 Bg    6 Ag                 
 -0.421
  7 Ag                                                                         
 -- Virtual --                   
  0.063   0.070   0.078   0.078   0.092   0.101   0.101   0.145
  7 Bu    8 Ag    8 Bu    3 Au    9 Ag   10 Ag    3 Bg    9 Bu                 
  0.145   0.147   0.167   0.167   0.197   0.242   0.294   0.352
  4 Au   10 Bu   11 Ag    4 Bg   11 Bu   12 Ag   12 Bu   13 Ag                 
  0.364   0.364   0.390   0.390   0.453   0.478   0.478   0.529
  5 Au   13 Bu    5 Bg   14 Ag   14 Bu   15 Bu    6 Au   15 Ag                 
  0.575   0.575   0.669   0.674   0.698   0.698   0.733   0.906
 16 Ag    6 Bg   16 Bu   17 Ag   17 Bu    7 Au   18 Bu   18 Ag                 
  0.911   0.911   1.135   1.135   1.171   1.172   1.338   1.424
  7 Bg   19 Ag    8 Bg   20 Ag    8 Au   19 Bu   20 Bu   21 Bu                 
  1.424   1.428   1.428   1.530   1.530   1.534   1.617   1.642
  9 Au   21 Ag    9 Bg   10 Au   10 Bg   22 Bu   22 Ag   23 Bu                 
  1.642   1.799   1.799   1.877   1.932   1.932   1.960   1.960
 11 Au   11 Bg   23 Ag   24 Ag   24 Bu   12 Au   25 Ag   12 Bg                 
  1.993   2.240   2.331   2.501   2.501   2.542   2.542   2.928
 25 Bu   26 Ag   26 Bu   13 Bg   27 Ag   13 Au   27 Bu   28 Bu                 
  2.928   2.974   2.974   3.051   3.129   6.083   6.221  12.268
 14 Au   28 Ag   14 Bg   29 Ag   29 Bu   30 Ag   30 Bu   31 Ag                 
 12.352  12.409  12.409  12.422  12.422 143.907 144.060
 31 Bu   15 Bg   32 Ag   15 Au   32 Bu   33 Ag   33 Bu                         
 
 Beta MOs, Restricted
 -- Occupied --                  
-68.741 -68.741  -6.100  -6.099  -4.207  -4.206  -4.206  -4.206
  1 Ag    1 Bu    2 Ag    2 Bu    3 Ag    1 Au    3 Bu    1 Bg                 
 -4.206  -4.205  -0.791  -0.692  -0.517  -0.517  -0.480  -0.480
  4 Ag    4 Bu    5 Ag    5 Bu    2 Au    6 Bu    2 Bg    6 Ag                 
 -0.421
  7 Ag                                                                         
 -- Virtual --                   
  0.063   0.070   0.078   0.078   0.092   0.101   0.101   0.145
  7 Bu    8 Ag    8 Bu    3 Au    9 Ag   10 Ag    3 Bg    9 Bu                 
  0.145   0.147   0.167   0.167   0.197   0.242   0.294   0.352
  4 Au   10 Bu   11 Ag    4 Bg   11 Bu   12 Ag   12 Bu   13 Ag                 
  0.364   0.364   0.390   0.390   0.453   0.478   0.478   0.529
  5 Au   13 Bu    5 Bg   14 Ag   14 Bu   15 Bu    6 Au   15 Ag                 
  0.575   0.575   0.669   0.674   0.698   0.698   0.733   0.906
 16 Ag    6 Bg   16 Bu   17 Ag   17 Bu    7 Au   18 Bu   18 Ag                 
  0.911   0.911   1.135   1.135   1.171   1.172   1.338   1.424
  7 Bg   19 Ag    8 Bg   20 Ag    8 Au   19 Bu   20 Bu   21 Bu                 
  1.424   1.428   1.428   1.530   1.530   1.534   1.617   1.642
  9 Au   21 Ag    9 Bg   10 Au   10 Bg   22 Bu   22 Ag   23 Bu                 
  1.642   1.799   1.799   1.877   1.932   1.932   1.960   1.960
 11 Au   11 Bg   23 Ag   24 Ag   24 Bu   12 Au   25 Ag   12 Bg                 
  1.993   2.240   2.331   2.501   2.501   2.542   2.542   2.928
 25 Bu   26 Ag   26 Bu   13 Bg   27 Ag   13 Au   27 Bu   28 Bu                 
  2.928   2.974   2.974   3.051   3.129   6.083   6.221  12.268
 14 Au   28 Ag   14 Bg   29 Ag   29 Bu   30 Ag   30 Bu   31 Ag                 
 12.352  12.409  12.409  12.422  12.422 143.907 144.060
 31 Bu   15 Bg   32 Ag   15 Au   32 Bu   33 Ag   33 Bu                         
 --------------------------------------------------------------
 
          Ground-State Mulliken Net Atomic Charges

     Atom                 Charge (a.u.)
  ----------------------------------------
      1 Si                    0.446714
      2 Si                    0.446714
      3 H                    -0.148904
      4 H                    -0.148905
      5 H                    -0.148905
      6 H                    -0.148905
      7 H                    -0.148905
      8 H                    -0.148904
  ----------------------------------------
  Sum of atomic charges =    -0.000000

 -----------------------------------------------------------------
                    Cartesian Multipole Moments
 -----------------------------------------------------------------
    Charge (ESU x 10^10)
                 0.0000
    Dipole Moment (Debye)
         X       0.0000      Y       0.0000      Z       0.0000
       Tot       0.0000
    Quadrupole Moments (Debye-Ang)
        XX     -32.2782     XY       0.0001     YY     -30.9908
        XZ       0.0000     YZ      -0.0000     ZZ     -30.9910
    Octopole Moments (Debye-Ang^2)
       XXX       0.0000    XXY       0.0000    XYY       0.0000
       YYY       0.0000    XXZ       0.0000    XYZ      -0.0000
       YYZ       0.0000    XZZ       0.0000    YZZ       0.0000
       ZZZ       0.0000
    Hexadecapole Moments (Debye-Ang^3)
      XXXX    -301.5859   XXXY      -0.0011   XXYY     -68.4286
      XYYY       3.0279   YYYY     -78.0427   XXXZ      -0.0000
      XXYZ      -0.0000   XYYZ       0.0000   YYYZ      -0.0000
      XXZZ     -68.4302   XYZZ      -3.0297   YYZZ     -26.0156
      XZZZ       0.0000   YZZZ      -0.0000   ZZZZ     -78.0505
 -----------------------------------------------------------------
 DrvMan is completing analytic gradient of the MP2 energy
 MP2 relaxed dipole moment
            1
    1   0.0000000
    2   0.0000000
    3   0.0000000
	Magnitude:	 0.000 au	 0.000 Debye
 MP2 energy read as -581.548558
 Full Analytical Gradient of MP2 Energy (in au.)
             1             2             3             4             5
    1    0.03069829   -0.03069829   -0.01201631   -0.01200517   -0.01200517
    2    0.00002892   -0.00002892    0.03131836   -0.01564469   -0.01564469
    3   -0.00000000    0.00000000    0.00000000   -0.02708967    0.02708967
             6             7             8
    1    0.01200517    0.01200517    0.01201631
    2    0.01564469    0.01564469   -0.03131836
    3   -0.02708967    0.02708967    0.00000000
 Gradient time:  CPU 0.11 s  wall 0.10 s
 Geometry Optimization Parameters
   NAtoms,    NIC,     NZ,  NCons,   NDum,   NFix, NCnnct, MaxDiis
        8      44       0       0       0       0       0       0

 Cartesian Hessian Update
 Hessian Updated using BFGS Update


** GEOMETRY OPTIMIZATION IN DELOCALIZED INTERNAL COORDINATES **
   Searching for a Minimum

   Optimization Cycle:   3

                       Coordinates (Angstroms)
     ATOM                X               Y               Z
      1  Si       -1.0699781252   -0.0000085006    0.0000000000
      2  Si        1.0699781252    0.0000085006    0.0000000000
      3  H         1.5606497933   -1.3159173763    0.0000000000
      4  H         1.5606418598    0.6579523090    1.1397279543
      5  H         1.5606418598    0.6579523090   -1.1397279543
      6  H        -1.5606418598   -0.6579523090    1.1397279543
      7  H        -1.5606418598   -0.6579523090   -1.1397279543
      8  H        -1.5606497933    1.3159173763    0.0000000000
   Point Group: c2h   Number of degrees of freedom:     6


   Energy is   -581.548558348

 Hessian Updated using BFGS Update

  6 Hessian modes will be used to form the next step
  Hessian Eigenvalues:
     0.085707    0.160000    0.160076    0.299345    0.301383    0.367286

 Minimum Search - Taking Simple RFO Step
 Searching for Lamda that Minimizes Along All modes
 Value Taken    Lamda =  -0.03352110
 Calculated Step too Large.  Step scaled by  0.946618
 Step Taken.  Stepsize is  0.300000

                             Maximum     Tolerance    Cnvgd?
         Gradient           0.093019      0.000020      NO
         Displacement       0.262213      0.000120      NO
         Energy change     -0.044723      0.000000      NO


 New Cartesian Coordinates Obtained by Inverse Iteration

 Displacement from previous Coordinates is:  0.408480
 ----------------------------------------------------------------
             Standard Nuclear Orientation (Angstroms)
    I     Atom           X                Y                Z
 ----------------------------------------------------------------
    1      Si     -1.1215023811    -0.0000082171     0.0000000000
    2      Si      1.1215023811     0.0000082171     0.0000000000
    3      H       1.6298030326    -1.3619892787     0.0000000000
    4      H       1.6298005238     0.6809906159     1.1795733322
    5      H       1.6298005238     0.6809906159    -1.1795733322
    6      H      -1.6298005238    -0.6809906159     1.1795733322
    7      H      -1.6298005238    -0.6809906159    -1.1795733322
    8      H      -1.6298030326     1.3619892787     0.0000000000
 ----------------------------------------------------------------
 Molecular Point Group                 C2h   NOp =  4
 Largest Abelian Subgroup              C2h   NOp =  4
 Nuclear Repulsion Energy =    93.9146917184 hartrees
 There are       17 alpha and       17 beta electrons
 Applying Cartesian multipole field
    Component          Value
    ---------          -----
     (2,0,0)        1.00000E-11
     (0,2,0)        2.00000E-11
     (0,0,2)       -3.00000E-11
 Nucleus-field energy     =     0.0000000016 hartrees
 Requested basis set is 6-311+G(d,p)
 There are 50 shells and 96 basis functions
 A cutoff of  1.0D-11 yielded   1220 shell pairs
 There are      4637 function pairs (      4842 Cartesian)
 Smallest overlap matrix eigenvalue = 8.36E-04
 Guess MOs from SCF MO coefficient file
 Reading MOs from coefficient file
 Reading MOs from coefficient file

 -----------------------------------------------------------------------
  General SCF calculation program by
  Eric Jon Sundstrom, Paul Horn, Yuezhi Mao, Dmitri Zuev, Alec White,
  David Stuck, Shaama M.S., Shane Yost, Joonho Lee, David Small,
  Daniel Levine, Susi Lehtola, Hugh Burton, Evgeny Epifanovsky
 -----------------------------------------------------------------------
 Hartree-Fock
 using 4 threads for integral computing
 -------------------------------------------------------
 OpenMP Integral computing Module                
 Release: version 1.0, May 2013, Q-Chem Inc. Pittsburgh 
 -------------------------------------------------------
 A restricted SCF calculation will be
 performed using DIIS
 SCF converges when DIIS error is below 1.0e-08
 ---------------------------------------
  Cycle       Energy         DIIS error
 ---------------------------------------
    1    -581.2634931729      4.02e-03  
    2    -581.3505944718      4.20e-04  
    3    -581.3508619900      7.51e-05  
    4    -581.3508712054      1.64e-05  
    5    -581.3508718069      4.81e-06  
    6    -581.3508718548      8.61e-07  
    7    -581.3508718576      1.62e-07  
    8    -581.3508718577      2.51e-08  
    9    -581.3508718577      3.00e-09  Convergence criterion met
 ---------------------------------------
 SCF time:   CPU 3.80s  wall 1.00s 
 SCF   energy in the final basis set =     -581.3508718577
 Total energy in the final basis set =     -581.3508718577
 
 Components of the MP2 correlation energy:
        aaaa  correlation energy =        -0.0142221245 au
        abab  correlation energy =        -0.1900598106 au
        bbbb  correlation energy =        -0.0142221245 au
        non-Brillouin singles    =        -0.0000000000 au

 Total  MP2   correlation energy =                    -0.21850406 au
        MP2         total energy =                  -581.56937592 au
  Entering Z-vector solver.
   1         0           1      0.000139    0.000139
   2         0           1      0.000031    0.000031
   3         0           1      0.000005    0.000005
   4         1           0      0.000000    0.000000    Roots Converged
 
 --------------------------------------------------------------
             Orbital Energies (a.u.) and Symmetries
 --------------------------------------------------------------
 
 Alpha MOs, Restricted
 -- Occupied --                  
-68.762 -68.762  -6.114  -6.114  -4.221  -4.220  -4.220  -4.220
  1 Ag    1 Bu    2 Ag    2 Bu    3 Ag    1 Au    3 Bu    1 Bg                 
 -4.220  -4.220  -0.773  -0.684  -0.507  -0.507  -0.475  -0.475
  4 Ag    4 Bu    5 Ag    5 Bu    2 Au    6 Bu    2 Bg    6 Ag                 
 -0.415
  7 Ag                                                                         
 -- Virtual --                   
  0.062   0.070   0.078   0.078   0.091   0.101   0.101   0.138
  7 Bu    8 Ag    3 Au    8 Bu    9 Ag    3 Bg   10 Ag    9 Bu                 
  0.138   0.145   0.165   0.165   0.189   0.240   0.277   0.346
  4 Au   10 Bu   11 Ag    4 Bg   11 Bu   12 Ag   12 Bu   13 Ag                 
  0.367   0.367   0.390   0.390   0.439   0.483   0.483   0.526
  5 Au   13 Bu    5 Bg   14 Ag   14 Bu   15 Bu    6 Au   15 Ag                 
  0.560   0.560   0.638   0.669   0.699   0.699   0.732   0.873
 16 Ag    6 Bg   16 Bu   17 Ag   17 Bu    7 Au   18 Bu   18 Ag                 
  0.890   0.890   1.106   1.106   1.127   1.127   1.264   1.424
  7 Bg   19 Ag    8 Bg   20 Ag    8 Au   19 Bu   20 Bu   21 Bu                 
  1.424   1.432   1.432   1.529   1.530   1.531   1.615   1.634
  9 Au   21 Ag    9 Bg   22 Bu   10 Au   10 Bg   22 Ag   23 Bu                 
  1.634   1.771   1.771   1.842   1.891   1.891   1.913   1.913
 11 Au   11 Bg   23 Ag   24 Ag   24 Bu   12 Au   25 Ag   12 Bg                 
  1.971   2.183   2.256   2.440   2.440   2.462   2.462   2.902
 25 Bu   26 Ag   26 Bu   13 Bg   27 Ag   13 Au   27 Bu   28 Bu                 
  2.902   2.957   2.957   3.011   3.097   6.071   6.166  12.276
 14 Au   28 Ag   14 Bg   29 Ag   29 Bu   30 Ag   30 Bu   31 Bu                 
 12.297  12.352  12.352  12.358  12.358 143.871 143.982
 31 Ag   15 Bg   32 Ag   15 Au   32 Bu   33 Ag   33 Bu                         
 
 Beta MOs, Restricted
 -- Occupied --                  
-68.762 -68.762  -6.114  -6.114  -4.221  -4.220  -4.220  -4.220
  1 Ag    1 Bu    2 Ag    2 Bu    3 Ag    1 Au    3 Bu    1 Bg                 
 -4.220  -4.220  -0.773  -0.684  -0.507  -0.507  -0.475  -0.475
  4 Ag    4 Bu    5 Ag    5 Bu    2 Au    6 Bu    2 Bg    6 Ag                 
 -0.415
  7 Ag                                                                         
 -- Virtual --                   
  0.062   0.070   0.078   0.078   0.091   0.101   0.101   0.138
  7 Bu    8 Ag    3 Au    8 Bu    9 Ag    3 Bg   10 Ag    9 Bu                 
  0.138   0.145   0.165   0.165   0.189   0.240   0.277   0.346
  4 Au   10 Bu   11 Ag    4 Bg   11 Bu   12 Ag   12 Bu   13 Ag                 
  0.367   0.367   0.390   0.390   0.439   0.483   0.483   0.526
  5 Au   13 Bu    5 Bg   14 Ag   14 Bu   15 Bu    6 Au   15 Ag                 
  0.560   0.560   0.638   0.669   0.699   0.699   0.732   0.873
 16 Ag    6 Bg   16 Bu   17 Ag   17 Bu    7 Au   18 Bu   18 Ag                 
  0.890   0.890   1.106   1.106   1.127   1.127   1.264   1.424
  7 Bg   19 Ag    8 Bg   20 Ag    8 Au   19 Bu   20 Bu   21 Bu                 
  1.424   1.432   1.432   1.529   1.530   1.531   1.615   1.634
  9 Au   21 Ag    9 Bg   22 Bu   10 Au   10 Bg   22 Ag   23 Bu                 
  1.634   1.771   1.771   1.842   1.891   1.891   1.913   1.913
 11 Au   11 Bg   23 Ag   24 Ag   24 Bu   12 Au   25 Ag   12 Bg                 
  1.971   2.183   2.256   2.440   2.440   2.462   2.462   2.902
 25 Bu   26 Ag   26 Bu   13 Bg   27 Ag   13 Au   27 Bu   28 Bu                 
  2.902   2.957   2.957   3.011   3.097   6.071   6.166  12.276
 14 Au   28 Ag   14 Bg   29 Ag   29 Bu   30 Ag   30 Bu   31 Bu                 
 12.297  12.352  12.352  12.358  12.358 143.871 143.982
 31 Ag   15 Bg   32 Ag   15 Au   32 Bu   33 Ag   33 Bu                         
 --------------------------------------------------------------
 
          Ground-State Mulliken Net Atomic Charges

     Atom                 Charge (a.u.)
  ----------------------------------------
      1 Si                    0.432221
      2 Si                    0.432221
      3 H                    -0.144074
      4 H                    -0.144074
      5 H                    -0.144074
      6 H                    -0.144074
      7 H                    -0.144074
      8 H                    -0.144074
  ----------------------------------------
  Sum of atomic charges =    -0.000000

 -----------------------------------------------------------------
                    Cartesian Multipole Moments
 -----------------------------------------------------------------
    Charge (ESU x 10^10)
                -0.0000
    Dipole Moment (Debye)
         X      -0.0000      Y      -0.0000      Z       0.0000
       Tot       0.0000
    Quadrupole Moments (Debye-Ang)
        XX     -32.7716     XY       0.0001     YY     -31.5109
        XZ      -0.0000     YZ      -0.0000     ZZ     -31.5110
    Octopole Moments (Debye-Ang^2)
       XXX      -0.0000    XXY      -0.0000    XYY      -0.0000
       YYY      -0.0000    XXZ       0.0000    XYZ       0.0000
       YYZ       0.0000    XZZ       0.0000    YZZ      -0.0000
       ZZZ       0.0000
    Hexadecapole Moments (Debye-Ang^3)
      XXXX    -332.2430   XXXY      -0.0006   XXYY     -74.5682
      XYYY       3.0644   YYYY     -82.7446   XXXZ      -0.0000
      XXYZ      -0.0000   XYYZ      -0.0000   YYYZ      -0.0000
      XXZZ     -74.5689   XYZZ      -3.0655   YYZZ     -27.5822
      XZZZ      -0.0000   YZZZ      -0.0000   ZZZZ     -82.7485
 -----------------------------------------------------------------
 DrvMan is completing analytic gradient of the MP2 energy
 MP2 relaxed dipole moment
            1
    1  -0.0000000
    2  -0.0000000
    3   0.0000000
	Magnitude:	 0.000 au	 0.000 Debye
 MP2 energy read as -581.569376
 Full Analytical Gradient of MP2 Energy (in au.)
             1             2             3             4             5
    1    0.01620331   -0.01620331   -0.00349700   -0.00349324   -0.00349324
    2    0.00000811   -0.00000811    0.00940904   -0.00470020   -0.00470020
    3    0.00000000   -0.00000000   -0.00000000   -0.00813605    0.00813605
             6             7             8
    1    0.00349324    0.00349324    0.00349700
    2    0.00470020    0.00470020   -0.00940904
    3   -0.00813605    0.00813605    0.00000000
 Gradient time:  CPU 0.12 s  wall 0.11 s
 Geometry Optimization Parameters
   NAtoms,    NIC,     NZ,  NCons,   NDum,   NFix, NCnnct, MaxDiis
        8      44       0       0       0       0       0       0

 Cartesian Hessian Update
 Hessian Updated using BFGS Update


** GEOMETRY OPTIMIZATION IN DELOCALIZED INTERNAL COORDINATES **
   Searching for a Minimum

   Optimization Cycle:   4

                       Coordinates (Angstroms)
     ATOM                X               Y               Z
      1  Si       -1.1215023811   -0.0000082171    0.0000000000
      2  Si        1.1215023811    0.0000082171    0.0000000000
      3  H         1.6298030326   -1.3619892787    0.0000000000
      4  H         1.6298005238    0.6809906159    1.1795733322
      5  H         1.6298005238    0.6809906159   -1.1795733322
      6  H        -1.6298005238   -0.6809906159    1.1795733322
      7  H        -1.6298005238   -0.6809906159   -1.1795733322
      8  H        -1.6298030326    1.3619892787    0.0000000000
   Point Group: c2h   Number of degrees of freedom:     6


   Energy is   -581.569375917

 Hessian Updated using BFGS Update

  6 Hessian modes will be used to form the next step
  Hessian Eigenvalues:
     0.085707    0.159959    0.160000    0.228976    0.301382    0.372176

 Minimum Search - Taking Simple RFO Step
 Searching for Lamda that Minimizes Along All modes
 Value Taken    Lamda =  -0.00561340
 Step Taken.  Stepsize is  0.154827

                             Maximum     Tolerance    Cnvgd?
         Gradient           0.029960      0.000020      NO
         Displacement       0.127950      0.000120      NO
         Energy change     -0.020818      0.000000      NO


 New Cartesian Coordinates Obtained by Inverse Iteration

 Displacement from previous Coordinates is:  0.213012
 ----------------------------------------------------------------
             Standard Nuclear Orientation (Angstroms)
    I     Atom           X                Y                Z
 ----------------------------------------------------------------
    1      Si     -1.1520715178    -0.0000042406     0.0000000000
    2      Si      1.1520715178     0.0000042406     0.0000000000
    3      H       1.6664822672    -1.3834759517     0.0000000000
    4      H       1.6664817468     0.6917361540     1.1981417735
    5      H       1.6664817468     0.6917361540    -1.1981417735
    6      H      -1.6664817468    -0.6917361540     1.1981417735
    7      H      -1.6664817468    -0.6917361540    -1.1981417735
    8      H      -1.6664822672     1.3834759517     0.0000000000
 ----------------------------------------------------------------
 Molecular Point Group                 C2h   NOp =  4
 Largest Abelian Subgroup              C2h   NOp =  4
 Nuclear Repulsion Energy =    91.8578999100 hartrees
 There are       17 alpha and       17 beta electrons
 Applying Cartesian multipole field
    Component          Value
    ---------          -----
     (2,0,0)        1.00000E-11
     (0,2,0)        2.00000E-11
     (0,0,2)       -3.00000E-11
 Nucleus-field energy     =     0.0000000017 hartrees
 Requested basis set is 6-311+G(d,p)
 There are 50 shells and 96 basis functions
 A cutoff of  1.0D-11 yielded   1220 shell pairs
 There are      4637 function pairs (      4842 Cartesian)
 Smallest overlap matrix eigenvalue = 9.43E-04
 Guess MOs from SCF MO coefficient file
 Reading MOs from coefficient file
 Reading MOs from coefficient file

 -----------------------------------------------------------------------
  General SCF calculation program by
  Eric Jon Sundstrom, Paul Horn, Yuezhi Mao, Dmitri Zuev, Alec White,
  David Stuck, Shaama M.S., Shane Yost, Joonho Lee, David Small,
  Daniel Levine, Susi Lehtola, Hugh Burton, Evgeny Epifanovsky
 -----------------------------------------------------------------------
 Hartree-Fock
 using 4 threads for integral computing
 -------------------------------------------------------
 OpenMP Integral computing Module                
 Release: version 1.0, May 2013, Q-Chem Inc. Pittsburgh 
 -------------------------------------------------------
 A restricted SCF calculation will be
 performed using DIIS
 SCF converges when DIIS error is below 1.0e-08
 ---------------------------------------
  Cycle       Energy         DIIS error
 ---------------------------------------
    1    -581.3114016906      1.89e-03  
    2    -581.3551932081      2.22e-04  
    3    -581.3552820822      4.50e-05  
    4    -581.3552852039      1.01e-05  
    5    -581.3552853956      2.93e-06  
    6    -581.3552854167      5.01e-07  
    7    -581.3552854178      9.22e-08  
    8    -581.3552854178      1.26e-08  
    9    -581.3552854178      1.43e-09  Convergence criterion met
 ---------------------------------------
 SCF time:   CPU 3.86s  wall 1.00s 
 SCF   energy in the final basis set =     -581.3552854178
 Total energy in the final basis set =     -581.3552854178
 
 Components of the MP2 correlation energy:
        aaaa  correlation energy =        -0.0139857049 au
        abab  correlation energy =        -0.1894977901 au
        bbbb  correlation energy =        -0.0139857049 au
        non-Brillouin singles    =        -0.0000000000 au

 Total  MP2   correlation energy =                    -0.21746920 au
        MP2         total energy =                  -581.57275462 au
  Entering Z-vector solver.
   1         0           1      0.000141    0.000141
   2         0           1      0.000031    0.000031
   3         0           1      0.000005    0.000005
   4         1           0      0.000000    0.000000    Roots Converged
 
 --------------------------------------------------------------
             Orbital Energies (a.u.) and Symmetries
 --------------------------------------------------------------
 
 Alpha MOs, Restricted
 -- Occupied --                  
-68.772 -68.772  -6.121  -6.121  -4.228  -4.227  -4.227  -4.227
  1 Ag    1 Bu    2 Ag    2 Bu    3 Ag    1 Au    3 Bu    1 Bg                 
 -4.227  -4.227  -0.764  -0.681  -0.502  -0.502  -0.473  -0.473
  4 Ag    4 Bu    5 Ag    5 Bu    2 Au    6 Bu    2 Bg    6 Ag                 
 -0.410
  7 Ag                                                                         
 -- Virtual --                   
  0.061   0.071   0.078   0.078   0.091   0.101   0.101   0.135
  7 Bu    8 Ag    3 Au    8 Bu    9 Ag    3 Bg   10 Ag    4 Au                 
  0.135   0.143   0.165   0.165   0.184   0.238   0.269   0.345
  9 Bu   10 Bu   11 Ag    4 Bg   11 Bu   12 Ag   12 Bu   13 Ag                 
  0.368   0.368   0.390   0.390   0.431   0.487   0.487   0.525
  5 Au   13 Bu    5 Bg   14 Ag   14 Bu   15 Bu    6 Au   15 Ag                 
  0.552   0.552   0.626   0.667   0.701   0.701   0.729   0.859
 16 Ag    6 Bg   16 Bu   17 Ag   17 Bu    7 Au   18 Bu   18 Ag                 
  0.879   0.879   1.092   1.092   1.107   1.107   1.225   1.423
  7 Bg   19 Ag    8 Bg   20 Ag    8 Au   19 Bu   20 Bu    9 Au                 
  1.423   1.435   1.435   1.530   1.531   1.531   1.609   1.631
 21 Bu   21 Ag    9 Bg   22 Bu   10 Au   10 Bg   22 Ag   23 Bu                 
  1.631   1.756   1.756   1.826   1.874   1.874   1.893   1.893
 11 Au   11 Bg   23 Ag   24 Ag   24 Bu   12 Au   25 Ag   12 Bg                 
  1.958   2.158   2.223   2.414   2.414   2.428   2.428   2.891
 25 Bu   26 Ag   26 Bu   13 Bg   27 Ag   13 Au   27 Bu   28 Bu                 
  2.891   2.948   2.948   2.992   3.079   6.063   6.138  12.246
 14 Au   28 Ag   14 Bg   29 Ag   29 Bu   30 Ag   30 Bu   31 Bu                 
 12.309  12.328  12.328  12.331  12.331 143.852 143.943
 31 Ag   15 Bg   32 Ag   15 Au   32 Bu   33 Ag   33 Bu                         
 
 Beta MOs, Restricted
 -- Occupied --                  
-68.772 -68.772  -6.121  -6.121  -4.228  -4.227  -4.227  -4.227
  1 Ag    1 Bu    2 Ag    2 Bu    3 Ag    1 Au    3 Bu    1 Bg                 
 -4.227  -4.227  -0.764  -0.681  -0.502  -0.502  -0.473  -0.473
  4 Ag    4 Bu    5 Ag    5 Bu    2 Au    6 Bu    2 Bg    6 Ag                 
 -0.410
  7 Ag                                                                         
 -- Virtual --                   
  0.061   0.071   0.078   0.078   0.091   0.101   0.101   0.135
  7 Bu    8 Ag    3 Au    8 Bu    9 Ag    3 Bg   10 Ag    4 Au                 
  0.135   0.143   0.165   0.165   0.184   0.238   0.269   0.345
  9 Bu   10 Bu   11 Ag    4 Bg   11 Bu   12 Ag   12 Bu   13 Ag                 
  0.368   0.368   0.390   0.390   0.431   0.487   0.487   0.525
  5 Au   13 Bu    5 Bg   14 Ag   14 Bu   15 Bu    6 Au   15 Ag                 
  0.552   0.552   0.626   0.667   0.701   0.701   0.729   0.859
 16 Ag    6 Bg   16 Bu   17 Ag   17 Bu    7 Au   18 Bu   18 Ag                 
  0.879   0.879   1.092   1.092   1.107   1.107   1.225   1.423
  7 Bg   19 Ag    8 Bg   20 Ag    8 Au   19 Bu   20 Bu    9 Au                 
  1.423   1.435   1.435   1.530   1.531   1.531   1.609   1.631
 21 Bu   21 Ag    9 Bg   22 Bu   10 Au   10 Bg   22 Ag   23 Bu                 
  1.631   1.756   1.756   1.826   1.874   1.874   1.893   1.893
 11 Au   11 Bg   23 Ag   24 Ag   24 Bu   12 Au   25 Ag   12 Bg                 
  1.958   2.158   2.223   2.414   2.414   2.428   2.428   2.891
 25 Bu   26 Ag   26 Bu   13 Bg   27 Ag   13 Au   27 Bu   28 Bu                 
  2.891   2.948   2.948   2.992   3.079   6.063   6.138  12.246
 14 Au   28 Ag   14 Bg   29 Ag   29 Bu   30 Ag   30 Bu   31 Bu                 
 12.309  12.328  12.328  12.331  12.331 143.852 143.943
 31 Ag   15 Bg   32 Ag   15 Au   32 Bu   33 Ag   33 Bu                         
 --------------------------------------------------------------
 
          Ground-State Mulliken Net Atomic Charges

     Atom                 Charge (a.u.)
  ----------------------------------------
      1 Si                    0.426243
      2 Si                    0.426243
      3 H                    -0.142081
      4 H                    -0.142081
      5 H                    -0.142081
      6 H                    -0.142081
      7 H                    -0.142081
      8 H                    -0.142081
  ----------------------------------------
  Sum of atomic charges =    -0.000000

 -----------------------------------------------------------------
                    Cartesian Multipole Moments
 -----------------------------------------------------------------
    Charge (ESU x 10^10)
                -0.0000
    Dipole Moment (Debye)
         X      -0.0000      Y       0.0000      Z       0.0000
       Tot       0.0000
    Quadrupole Moments (Debye-Ang)
        XX     -32.9783     XY       0.0001     YY     -31.7560
        XZ      -0.0000     YZ      -0.0000     ZZ     -31.7560
    Octopole Moments (Debye-Ang^2)
       XXX       0.0000    XXY       0.0000    XYY      -0.0000
       YYY       0.0000    XXZ      -0.0000    XYZ      -0.0000
       YYZ      -0.0000    XZZ      -0.0000    YZZ      -0.0000
       ZZZ      -0.0000
    Hexadecapole Moments (Debye-Ang^3)
      XXXX    -349.9060   XXXY      -0.0002   XXYY     -78.0222
      XYYY       3.0927   YYYY     -84.9850   XXXZ      -0.0000
      XXYZ      -0.0000   XYYZ       0.0000   YYYZ      -0.0000
      XXZZ     -78.0223   XYZZ      -3.0930   YYZZ     -28.3285
      XZZZ       0.0000   YZZZ      -0.0000   ZZZZ     -84.9861
 -----------------------------------------------------------------
 DrvMan is completing analytic gradient of the MP2 energy
 MP2 relaxed dipole moment
            1
    1  -0.0000000
    2   0.0000000
    3   0.0000000
	Magnitude:	 0.000 au	 0.000 Debye
 MP2 energy read as -581.572755
 Full Analytical Gradient of MP2 Energy (in au.)
             1             2             3             4             5
    1    0.00825460   -0.00825460   -0.00023028   -0.00022959   -0.00022959
    2    0.00000069   -0.00000069    0.00084154   -0.00042025   -0.00042025
    3   -0.00000000   -0.00000000    0.00000000   -0.00072616    0.00072616
             6             7             8
    1    0.00022959    0.00022959    0.00023028
    2    0.00042025    0.00042025   -0.00084154
    3   -0.00072616    0.00072616   -0.00000000
 Gradient time:  CPU 0.12 s  wall 0.12 s
 Geometry Optimization Parameters
   NAtoms,    NIC,     NZ,  NCons,   NDum,   NFix, NCnnct, MaxDiis
        8      44       0       0       0       0       0       0

 Cartesian Hessian Update
 Hessian Updated using BFGS Update


** GEOMETRY OPTIMIZATION IN DELOCALIZED INTERNAL COORDINATES **
   Searching for a Minimum

   Optimization Cycle:   5

                       Coordinates (Angstroms)
     ATOM                X               Y               Z
      1  Si       -1.1520715178   -0.0000042406    0.0000000000
      2  Si        1.1520715178    0.0000042406    0.0000000000
      3  H         1.6664822672   -1.3834759517    0.0000000000
      4  H         1.6664817468    0.6917361540    1.1981417735
      5  H         1.6664817468    0.6917361540   -1.1981417735
      6  H        -1.6664817468   -0.6917361540    1.1981417735
      7  H        -1.6664817468   -0.6917361540   -1.1981417735
      8  H        -1.6664822672    1.3834759517    0.0000000000
   Point Group: c2h   Number of degrees of freedom:     6


   Energy is   -581.572754618

 Hessian Updated using BFGS Update

  6 Hessian modes will be used to form the next step
  Hessian Eigenvalues:
     0.085707    0.158348    0.160000    0.178961    0.301382    0.382776

 Minimum Search - Taking Simple RFO Step
 Searching for Lamda that Minimizes Along All modes
 Value Taken    Lamda =  -0.00045055
 Step Taken.  Stepsize is  0.049783

                             Maximum     Tolerance    Cnvgd?
         Gradient           0.005772      0.000020      NO
         Displacement       0.032407      0.000120      NO
         Energy change     -0.003379      0.000000      NO


 New Cartesian Coordinates Obtained by Inverse Iteration

 Displacement from previous Coordinates is:  0.067582
 ----------------------------------------------------------------
             Standard Nuclear Orientation (Angstroms)
    I     Atom           X                Y                Z
 ----------------------------------------------------------------
    1      Si     -1.1641141659    -0.0000015837     0.0000000000
    2      Si      1.1641141659     0.0000015837     0.0000000000
    3      H       1.6784770408    -1.3880619417     0.0000000000
    4      H       1.6784760650     0.6940298813     1.2020981018
    5      H       1.6784760650     0.6940298813    -1.2020981018
    6      H      -1.6784760650    -0.6940298813     1.2020981018
    7      H      -1.6784760650    -0.6940298813    -1.2020981018
    8      H      -1.6784770408     1.3880619417     0.0000000000
 ----------------------------------------------------------------
 Molecular Point Group                 C2h   NOp =  4
 Largest Abelian Subgroup              C2h   NOp =  4
 Nuclear Repulsion Energy =    91.1874405202 hartrees
 There are       17 alpha and       17 beta electrons
 Applying Cartesian multipole field
    Component          Value
    ---------          -----
     (2,0,0)        1.00000E-11
     (0,2,0)        2.00000E-11
     (0,0,2)       -3.00000E-11
 Nucleus-field energy     =     0.0000000018 hartrees
 Requested basis set is 6-311+G(d,p)
 There are 50 shells and 96 basis functions
 A cutoff of  1.0D-11 yielded   1217 shell pairs
 There are      4610 function pairs (      4815 Cartesian)
 Smallest overlap matrix eigenvalue = 9.88E-04
 Guess MOs from SCF MO coefficient file
 Reading MOs from coefficient file
 Reading MOs from coefficient file

 -----------------------------------------------------------------------
  General SCF calculation program by
  Eric Jon Sundstrom, Paul Horn, Yuezhi Mao, Dmitri Zuev, Alec White,
  David Stuck, Shaama M.S., Shane Yost, Joonho Lee, David Small,
  Daniel Levine, Susi Lehtola, Hugh Burton, Evgeny Epifanovsky
 -----------------------------------------------------------------------
 Hartree-Fock
 using 4 threads for integral computing
 -------------------------------------------------------
 OpenMP Integral computing Module                
 Release: version 1.0, May 2013, Q-Chem Inc. Pittsburgh 
 -------------------------------------------------------
 A restricted SCF calculation will be
 performed using DIIS
 SCF converges when DIIS error is below 1.0e-08
 ---------------------------------------
  Cycle       Energy         DIIS error
 ---------------------------------------
    1    -581.3448336371      6.65e-04  
    2    -581.3558456031      7.23e-05  
    3    -581.3558558370      1.70e-05  
    4    -581.3558562377      3.78e-06  
    5    -581.3558562676      1.14e-06  
    6    -581.3558562712      1.85e-07  
    7    -581.3558562714      3.05e-08  
    8    -581.3558562714      3.18e-09  Convergence criterion met
 ---------------------------------------
 SCF time:   CPU 3.34s  wall 1.00s 
 SCF   energy in the final basis set =     -581.3558562714
 Total energy in the final basis set =     -581.3558562714
 
 Components of the MP2 correlation energy:
        aaaa  correlation energy =        -0.0139153654 au
        abab  correlation energy =        -0.1893402367 au
        bbbb  correlation energy =        -0.0139153654 au
        non-Brillouin singles    =        -0.0000000000 au

 Total  MP2   correlation energy =                    -0.21717097 au
        MP2         total energy =                  -581.57302724 au
  Entering Z-vector solver.
   1         0           1      0.000142    0.000142
   2         0           1      0.000031    0.000031
   3         0           1      0.000005    0.000005
   4         1           0      0.000000    0.000000    Roots Converged
 
 --------------------------------------------------------------
             Orbital Energies (a.u.) and Symmetries
 --------------------------------------------------------------
 
 Alpha MOs, Restricted
 -- Occupied --                  
-68.774 -68.774  -6.122  -6.122  -4.229  -4.229  -4.229  -4.229
  1 Ag    1 Bu    2 Ag    2 Bu    3 Ag    1 Au    3 Bu    1 Bg                 
 -4.229  -4.229  -0.761  -0.680  -0.501  -0.501  -0.473  -0.473
  4 Ag    4 Bu    5 Ag    5 Bu    2 Au    6 Bu    2 Bg    6 Ag                 
 -0.407
  7 Ag                                                                         
 -- Virtual --                   
  0.061   0.071   0.078   0.078   0.091   0.101   0.101   0.135
  7 Bu    8 Ag    3 Au    8 Bu    9 Ag    3 Bg   10 Ag    4 Au                 
  0.135   0.143   0.165   0.165   0.181   0.237   0.267   0.344
  9 Bu   10 Bu    4 Bg   11 Ag   11 Bu   12 Ag   12 Bu   13 Ag                 
  0.368   0.368   0.390   0.390   0.428   0.490   0.490   0.525
  5 Au   13 Bu    5 Bg   14 Ag   14 Bu    6 Au   15 Bu   15 Ag                 
  0.549   0.549   0.623   0.667   0.702   0.702   0.728   0.855
 16 Ag    6 Bg   16 Bu   17 Ag    7 Au   17 Bu   18 Bu   18 Ag                 
  0.875   0.875   1.089   1.089   1.103   1.103   1.212   1.422
  7 Bg   19 Ag    8 Bg   20 Ag    8 Au   19 Bu   20 Bu    9 Au                 
  1.422   1.436   1.436   1.531   1.531   1.532   1.607   1.631
 21 Bu    9 Bg   21 Ag   10 Au   10 Bg   22 Bu   22 Ag   11 Au                 
  1.631   1.752   1.752   1.823   1.871   1.871   1.889   1.889
 23 Bu   11 Bg   23 Ag   24 Ag   24 Bu   12 Au   25 Ag   12 Bg                 
  1.954   2.154   2.215   2.409   2.409   2.422   2.422   2.888
 25 Bu   26 Ag   26 Bu   27 Ag   13 Bg   27 Bu   13 Au   28 Bu                 
  2.888   2.946   2.946   2.988   3.075   6.062   6.130  12.238
 14 Au   28 Ag   14 Bg   29 Ag   29 Bu   30 Ag   30 Bu   31 Bu                 
 12.313  12.324  12.324  12.325  12.325 143.849 143.932
 31 Ag   32 Ag   15 Bg   32 Bu   15 Au   33 Ag   33 Bu                         
 
 Beta MOs, Restricted
 -- Occupied --                  
-68.774 -68.774  -6.122  -6.122  -4.229  -4.229  -4.229  -4.229
  1 Ag    1 Bu    2 Ag    2 Bu    3 Ag    1 Au    3 Bu    1 Bg                 
 -4.229  -4.229  -0.761  -0.680  -0.501  -0.501  -0.473  -0.473
  4 Ag    4 Bu    5 Ag    5 Bu    2 Au    6 Bu    2 Bg    6 Ag                 
 -0.407
  7 Ag                                                                         
 -- Virtual --                   
  0.061   0.071   0.078   0.078   0.091   0.101   0.101   0.135
  7 Bu    8 Ag    3 Au    8 Bu    9 Ag    3 Bg   10 Ag    4 Au                 
  0.135   0.143   0.165   0.165   0.181   0.237   0.267   0.344
  9 Bu   10 Bu    4 Bg   11 Ag   11 Bu   12 Ag   12 Bu   13 Ag                 
  0.368   0.368   0.390   0.390   0.428   0.490   0.490   0.525
  5 Au   13 Bu    5 Bg   14 Ag   14 Bu    6 Au   15 Bu   15 Ag                 
  0.549   0.549   0.623   0.667   0.702   0.702   0.728   0.855
 16 Ag    6 Bg   16 Bu   17 Ag    7 Au   17 Bu   18 Bu   18 Ag                 
  0.875   0.875   1.089   1.089   1.103   1.103   1.212   1.422
  7 Bg   19 Ag    8 Bg   20 Ag    8 Au   19 Bu   20 Bu    9 Au                 
  1.422   1.436   1.436   1.531   1.531   1.532   1.607   1.631
 21 Bu    9 Bg   21 Ag   10 Au   10 Bg   22 Bu   22 Ag   11 Au                 
  1.631   1.752   1.752   1.823   1.871   1.871   1.889   1.889
 23 Bu   11 Bg   23 Ag   24 Ag   24 Bu   12 Au   25 Ag   12 Bg                 
  1.954   2.154   2.215   2.409   2.409   2.422   2.422   2.888
 25 Bu   26 Ag   26 Bu   27 Ag   13 Bg   27 Bu   13 Au   28 Bu                 
  2.888   2.946   2.946   2.988   3.075   6.062   6.130  12.238
 14 Au   28 Ag   14 Bg   29 Ag   29 Bu   30 Ag   30 Bu   31 Bu                 
 12.313  12.324  12.324  12.325  12.325 143.849 143.932
 31 Ag   32 Ag   15 Bg   32 Bu   15 Au   33 Ag   33 Bu                         
 --------------------------------------------------------------
 
          Ground-State Mulliken Net Atomic Charges

     Atom                 Charge (a.u.)
  ----------------------------------------
      1 Si                    0.425189
      2 Si                    0.425189
      3 H                    -0.141730
      4 H                    -0.141730
      5 H                    -0.141730
      6 H                    -0.141730
      7 H                    -0.141730
      8 H                    -0.141730
  ----------------------------------------
  Sum of atomic charges =    -0.000000

 -----------------------------------------------------------------
                    Cartesian Multipole Moments
 -----------------------------------------------------------------
    Charge (ESU x 10^10)
                -0.0000
    Dipole Moment (Debye)
         X      -0.0000      Y      -0.0000      Z      -0.0000
       Tot       0.0000
    Quadrupole Moments (Debye-Ang)
        XX     -33.0059     XY       0.0000     YY     -31.8135
        XZ       0.0000     YZ       0.0000     ZZ     -31.8135
    Octopole Moments (Debye-Ang^2)
       XXX      -0.0000    XXY      -0.0000    XYY      -0.0000
       YYY      -0.0000    XXZ      -0.0000    XYZ      -0.0000
       YYZ      -0.0000    XZZ      -0.0000    YZZ      -0.0000
       ZZZ      -0.0000
    Hexadecapole Moments (Debye-Ang^3)
      XXXX    -356.0781   XXXY       0.0001   XXYY     -79.1857
      XYYY       3.1131   YYYY     -85.4645   XXXZ       0.0000
      XXYZ       0.0000   XYYZ       0.0000   YYYZ       0.0000
      XXZZ     -79.1857   XYZZ      -3.1131   YYZZ     -28.4882
      XZZZ       0.0000   YZZZ       0.0000   ZZZZ     -85.4645
 -----------------------------------------------------------------
 DrvMan is completing analytic gradient of the MP2 energy
 MP2 relaxed dipole moment
            1
    1  -0.0000000
    2  -0.0000000
    3  -0.0000000
	Magnitude:	 0.000 au	 0.000 Debye
 MP2 energy read as -581.573027
 Full Analytical Gradient of MP2 Energy (in au.)
             1             2             3             4             5
    1    0.00408548   -0.00408548    0.00034948    0.00034922    0.00034922
    2   -0.00000105    0.00000105   -0.00076769    0.00038337    0.00038337
    3    0.00000000    0.00000000   -0.00000000    0.00066436   -0.00066436
             6             7             8
    1   -0.00034922   -0.00034922   -0.00034948
    2   -0.00038337   -0.00038337    0.00076769
    3    0.00066436   -0.00066436    0.00000000
 Gradient time:  CPU 0.12 s  wall 0.11 s
 Geometry Optimization Parameters
   NAtoms,    NIC,     NZ,  NCons,   NDum,   NFix, NCnnct, MaxDiis
        8      44       0       0       0       0       0       0

 Cartesian Hessian Update
 Hessian Updated using BFGS Update


** GEOMETRY OPTIMIZATION IN DELOCALIZED INTERNAL COORDINATES **
   Searching for a Minimum

   Optimization Cycle:   6

                       Coordinates (Angstroms)
     ATOM                X               Y               Z
      1  Si       -1.1641141659   -0.0000015837    0.0000000000
      2  Si        1.1641141659    0.0000015837    0.0000000000
      3  H         1.6784770408   -1.3880619417    0.0000000000
      4  H         1.6784760650    0.6940298813    1.2020981018
      5  H         1.6784760650    0.6940298813   -1.2020981018
      6  H        -1.6784760650   -0.6940298813    1.2020981018
      7  H        -1.6784760650   -0.6940298813   -1.2020981018
      8  H        -1.6784770408    1.3880619417    0.0000000000
   Point Group: c2h   Number of degrees of freedom:     6


   Energy is   -581.573027239

 Hessian Updated using BFGS Update

  6 Hessian modes will be used to form the next step
  Hessian Eigenvalues:
     0.085707    0.135269    0.160000    0.164442    0.301382    0.381837

 Minimum Search - Taking Simple RFO Step
 Searching for Lamda that Minimizes Along All modes
 Value Taken    Lamda =  -0.00006125
 Step Taken.  Stepsize is  0.018661

                             Maximum     Tolerance    Cnvgd?
         Gradient           0.003241      0.000020      NO
         Displacement       0.015753      0.000120      NO
         Energy change     -0.000273      0.000000      NO


 New Cartesian Coordinates Obtained by Inverse Iteration

[...]

Order 1, Length 24
    Atom      X          Y          Z
     1   -5.858907196106189e-03   1.014788397410745e-02   7.768465836497213e-04
     2   -2.880982277668965e-02   4.989924686529447e-02  -4.537431550452862e-02
     3    2.779582162840351e-03  -4.429405224023318e-03   3.794765602261522e-03
     4    2.853688276181798e-02  -4.942783350032898e-02   4.058631950071555e-02
     5    2.446644374156673e-03  -4.622145863925025e-03   3.794765602261522e-03
     6    1.615287238453242e-04  -7.472188247009258e-04   2.032945802043644e-04
     7    1.749276639417229e-04  -3.028313985236490e-04  -3.985196289284581e-03
     8    5.665831625506595e-04  -5.133772630139940e-04   2.040152214295687e-04


     5 Order 1, Length 24
    Atom      X          Y          Z
     1    5.086161495984265e-04  -2.690551710773723e-06   2.584575584233752e-05
     2   -6.079528758951450e-02  -6.086541775587080e-02  -2.539128510121374e-02
     3   -5.392025044892387e-03  -1.118891343275721e-02  -5.225768529079872e-03
     4    5.031992112470319e-03   5.170604320916570e-03   2.446644374156673e-03
     5    6.000498108183981e-02   6.693718116114050e-02   2.853731808440343e-02
     6    4.472914686626542e-04  -8.015953571961922e-05   1.749276639417230e-04
     7    7.233201598730863e-05   2.199440895938946e-05   1.613061702201141e-04
     8    1.240641069048085e-04   7.873140818568502e-06  -7.278748462996151e-04

Order 1, Length 24
    Atom      X          Y          Z
     1   -2.725201892188725e-06   5.057098592995968e-04   4.493128572063615e-05
     2   -6.086541766498224e-02  -1.310766182962544e-01  -4.397885655270009e-02
     3   -8.477048088319119e-04   1.557319716343651e-03  -1.924861529141781e-04
     4   -5.170604303008725e-03  -8.866697441019054e-03  -4.622145863925025e-03
     5    6.693718116114050e-02   1.372973803995634e-01   4.942758216671708e-02
     6   -8.015953765540786e-05   3.547312084933511e-04   3.028313985236490e-04
     7   -2.199440895938944e-05   1.413081509193071e-04  -7.473640436323962e-04
     8    5.186190480441378e-05   8.957606223432509e-05  -2.337214340595306e-04

Order 1, Length 24
    Atom      X          Y          Z
     1   -5.858494065495314e-03  -1.014812250635336e-02   7.763553647815723e-04
     2   -2.880916521814819e-02  -4.989918006571402e-02  -4.537460414057613e-02
     3    2.779573551077905e-03   4.429929114008470e-03   3.794765602261522e-03
     4    2.446186366239522e-03   4.621891376937496e-03   3.794765602261522e-03
     5    2.853731808440343e-02   4.942758216671708e-02   4.058631950071555e-02
     6    1.747958522141881e-04   3.029075000600236e-04  -3.985196289284581e-03
     7    1.613061702201144e-04   7.473640436323962e-04   2.040152214295687e-04
     8    5.663461224542910e-04   5.134973906413948e-04   2.032945802043644e-04


     6 Order 1, Length 24
    Atom      X          Y          Z
     1   -6.079529450460994e-02  -6.086546582526034e-02  -2.539119875197545e-02
     2    5.087567089909453e-04  -2.795382364994189e-06   2.571778049393889e-05
     3    1.240641171863075e-04   7.873133593597492e-06  -7.278893327707738e-04
     4    7.233203989908341e-05   2.199438199292265e-05   1.615287238453242e-04
     5    4.472914686626542e-04  -8.015953765540786e-05   1.747958522141881e-04
     6    6.000498122686378e-02   6.693718124487014e-02   2.853688276181800e-02
     7    5.031992112470319e-03   5.170604303008721e-03   2.446186366239520e-03
     8   -5.392025060401042e-03  -1.118891342380328e-02  -5.226217925234578e-03

Order 1, Length 24
    Atom      X          Y          Z
     1   -6.086529220021141e-02  -1.310765665097952e-01  -4.397880059049555e-02
     2   -2.795385162950907e-06   5.055288745442080e-04   4.482603764336027e-05
     3    5.186195151237639e-05   8.957604972030823e-05  -2.339867806184022e-04
     4   -2.199438199292262e-05   1.413081292400502e-04  -7.472188247009258e-04
     5   -8.015953571961922e-05   3.547312084933511e-04   3.029075000600236e-04
     6    6.693718124487014e-02   1.372973802545394e-01   4.942783350032896e-02
     7   -5.170604320916575e-03  -8.866697441019056e-03  -4.621891376937498e-03
     8   -8.477047998779854e-04   1.557319731852306e-03  -1.922167499165516e-04

Order 1, Length 24
    Atom      X          Y          Z
     1   -2.880931378335837e-02  -4.989954074367037e-02  -4.537487403337231e-02
     2   -5.858894479302075e-03  -1.014742584984417e-02   7.766092028361799e-04
     3    5.665831625506597e-04   5.133772630139939e-04   2.040152214295687e-04
     4    1.615287238453246e-04   7.472188247009258e-04   2.032945802043644e-04
     5    1.749276639417230e-04   3.028313985236490e-04  -3.985196289284581e-03
     6    2.853688276181800e-02   4.942783350032896e-02   4.058631950071555e-02
     7    2.446644374156675e-03   4.622145863925023e-03   3.794765602261522e-03
     8    2.779582162840352e-03   4.429405224023318e-03   3.794765602261522e-03


     7 Order 1, Length 24
    Atom      X          Y          Z
     1   -6.079529444987392e-02   6.086546587132891e-02  -2.539122764983466e-02
     2    5.087815261852046e-04   2.629731433103732e-06   2.571073834733551e-05
     3    1.240641069048085e-04  -7.873140818568510e-06  -7.278748462996151e-04
     4    4.472914686626542e-04   8.015953571961918e-05   1.749276639417229e-04
     5    7.233201598730863e-05  -2.199440895938944e-05   1.613061702201144e-04
     6    5.031992112470319e-03  -5.170604320916575e-03   2.446644374156675e-03
     7    6.000498108183978e-02  -6.693718116114047e-02   2.853731808440342e-02
     8   -5.392025044892384e-03   1.118891343275721e-02  -5.225768529079872e-03

Order 1, Length 24
    Atom      X          Y          Z
     1    6.086529207316831e-02  -1.310765665895883e-01   4.397899001929106e-02
     2    2.595058994664973e-06   5.055444610045192e-04  -4.464873052903100e-05
     3   -5.186190480441379e-05   8.957606223432511e-05   2.337214340595307e-04
     4    8.015953765540781e-05   3.547312084933510e-04  -3.028313985236490e-04
     5    2.199440895938946e-05   1.413081509193071e-04   7.473640436323962e-04
     6    5.170604303008721e-03  -8.866697441019056e-03   4.622145863925023e-03
     7   -6.693718116114047e-02   1.372973803995634e-01  -4.942758216671710e-02
     8    8.477048088319129e-04   1.557319716343648e-03   1.924861529141793e-04

Order 1, Length 24
    Atom      X          Y          Z
     1   -2.880910402671120e-02   4.989966183578801e-02  -4.537431550452862e-02
     2   -5.858871718180947e-03   1.014790445729714e-02   7.768465836497213e-04
     3    5.663461224542908e-04  -5.134973906413950e-04   2.032945802043644e-04
     4    1.747958522141879e-04  -3.029075000600237e-04  -3.985196289284581e-03
     5    1.613061702201141e-04  -7.473640436323962e-04   2.040152214295687e-04
     6    2.446186366239520e-03  -4.621891376937498e-03   3.794765602261522e-03
     7    2.853731808440342e-02  -4.942758216671710e-02   4.058631950071555e-02
     8    2.779573551077904e-03  -4.429929114008470e-03   3.794765602261522e-03


     8 Order 1, Length 24
    Atom      X          Y          Z
     1   -1.662172835687501e-01   0.000000000000000e+00   5.078244955463687e-02
     2    5.040913417739029e-04   0.000000000000000e+00  -5.183451277993665e-05
     3    3.084510784086994e-04   0.000000000000000e+00  -3.497235161559108e-04
     4    1.240641171863074e-04  -5.186195151237639e-05   5.665831625506595e-04
     5    1.240641069048085e-04   5.186190480441378e-05   5.663461224542910e-04
     6   -5.392025060401042e-03  -8.477047998779854e-04   2.779582162840352e-03
     7   -5.392025044892384e-03   8.477048088319129e-04   2.779573551077904e-03
     8    1.759435799134013e-01   0.000000000000000e+00  -5.707420084622140e-02

Order 1, Length 24
    Atom      X          Y          Z
     1    0.000000000000000e+00  -2.565462231701883e-02   0.000000000000000e+00
     2    0.000000000000000e+00   5.102346671241203e-04   0.000000000000000e+00
     3    0.000000000000000e+00   4.935715987473058e-04   0.000000000000000e+00
     4   -7.873133593597502e-06   8.957604972030823e-05  -5.133772630139940e-04
     5    7.873140818568502e-06   8.957606223432509e-05   5.134973906413948e-04
     6   -1.118891342380328e-02   1.557319731852306e-03   4.429405224023318e-03
     7    1.118891343275721e-02   1.557319716343648e-03  -4.429929114008470e-03
     8    0.000000000000000e+00   2.135878156800189e-02  -2.513336118673551e-07

Order 1, Length 24
    Atom      X          Y          Z
     1    5.761854017399649e-02  -1.210921176420345e-07  -4.537460414057613e-02
     2    1.171777892396628e-02  -4.565645373699276e-07   7.763553647815723e-04
     3   -3.497235161559108e-04   7.610153637466495e-08  -3.985196289284581e-03
     4   -7.278893327707738e-04   2.339867806184024e-04   2.040152214295687e-04
     5   -7.278748462996151e-04  -2.337214340595306e-04   2.032945802043644e-04
     6   -5.226217925234578e-03  -1.922167499165516e-04   3.794765602261522e-03
     7   -5.225768529079872e-03   1.924861529141793e-04   3.794765602261522e-03
     8   -5.707420084622140e-02  -2.513336118673551e-07   4.058631950071555e-02




 # Finishing finite difference calculation for IDERIV #
 ######################################################
 ######################################################
 Requested basis set is 6-311+G(d,p)
 There are 50 shells and 96 basis functions
 **********************************************************************
 **                                                                  **
 **                       VIBRATIONAL ANALYSIS                       **
 **                       --------------------                       **
 **                                                                  **
 **        VIBRATIONAL FREQUENCIES (CM**-1) AND NORMAL MODES         **
 **     FORCE CONSTANTS (mDYN/ANGSTROM) AND REDUCED MASSES (AMU)     **
 **                  INFRARED INTENSITIES (KM/MOL)                   **
 **                                                                  **
 **********************************************************************
 

 Mode:                 1                      2                      3
 Frequency:       148.35                 393.14                 393.14
 Force Cnst:      0.0131                 0.0937                 0.0937
 Red. Mass:       1.0078                 1.0295                 1.0295
 IR Active:          YES                    YES                    YES
 IR Intens:        0.000                 34.870                 34.870
 Raman Active:       YES                    YES                    YES
               X      Y      Z        X      Y      Z        X      Y      Z
 Si         0.000  0.000  0.000    0.011 -0.017  0.000    0.017  0.011  0.000
 Si         0.000 -0.000 -0.000    0.011 -0.017 -0.000    0.017  0.011 -0.000
 H         -0.000  0.408 -0.000   -0.097  0.162 -0.285   -0.146 -0.108 -0.428
 H         -0.354 -0.204 -0.000   -0.099  0.145  0.513   -0.163 -0.107 -0.033
 H          0.354 -0.204 -0.000   -0.113  0.155 -0.228   -0.154 -0.093  0.461
 H          0.354 -0.204  0.000   -0.113  0.155 -0.228   -0.154 -0.093  0.461
 H         -0.354 -0.204  0.000   -0.099  0.145  0.513   -0.163 -0.107 -0.033
 H          0.000  0.408  0.000   -0.097  0.162 -0.285   -0.146 -0.108 -0.428
 TransDip   0.000  0.000  0.000    0.105 -0.157 -0.000    0.157  0.105 -0.000

 Mode:                 4                      5                      6
 Frequency:       447.12                 663.47                 663.47
 Force Cnst:      0.8179                 0.3121                 0.3121
 Red. Mass:       6.9435                 1.2033                 1.2033
 IR Active:          YES                    YES                    YES
 IR Intens:        0.000                  0.000                  0.000
 Raman Active:       YES                    YES                    YES
               X      Y      Z        X      Y      Z        X      Y      Z
 Si         0.000  0.000 -0.332    0.046  0.038  0.000   -0.038  0.046  0.000
 Si         0.000  0.000  0.332   -0.046 -0.038 -0.000    0.038 -0.046 -0.000
 H          0.011  0.000  0.360    0.109  0.132  0.399   -0.090  0.159 -0.330
 H         -0.006  0.010  0.360    0.165  0.122  0.086   -0.100  0.104  0.511
 H         -0.006 -0.010  0.360    0.129  0.079 -0.485   -0.143  0.140 -0.181
 H          0.006  0.010 -0.360   -0.129 -0.079  0.485    0.143 -0.140  0.181
 H          0.006 -0.010 -0.360   -0.165 -0.122 -0.086    0.100 -0.104 -0.511
 H         -0.011  0.000 -0.360   -0.109 -0.132 -0.399    0.090 -0.159  0.330
 TransDip   0.000  0.000  0.000   -0.000  0.000 -0.000   -0.000 -0.000 -0.000

 Mode:                 7                      8                      9
 Frequency:       896.92                 976.76                 978.07
 Force Cnst:      0.5213                 0.6279                 0.5791
 Red. Mass:       1.0999                 1.1170                 1.0275
 IR Active:          YES                    YES                    YES
 IR Intens:      637.702                  0.000                  0.000
 Raman Active:       YES                    YES                    YES
               X      Y      Z        X      Y      Z        X      Y      Z
 Si        -0.000  0.000 -0.041   -0.000 -0.000 -0.045    0.014 -0.013  0.000
 Si        -0.000  0.000 -0.041    0.000  0.000  0.045   -0.014  0.013 -0.000
 H          0.141 -0.000  0.382   -0.151 -0.000 -0.378   -0.067 -0.360 -0.163
 H         -0.071  0.122  0.382    0.075 -0.131 -0.378    0.085  0.151  0.216
 H         -0.071 -0.122  0.382    0.075  0.131 -0.378    0.452 -0.236 -0.052
 H         -0.071 -0.122  0.382   -0.075 -0.131  0.378   -0.452  0.236  0.052
 H         -0.071  0.122  0.382   -0.075  0.131  0.378   -0.085 -0.151 -0.216
 H          0.141 -0.000  0.382    0.151  0.000  0.378    0.067  0.360  0.163
 TransDip  -0.000  0.000 -0.809    0.000 -0.000 -0.000   -0.000 -0.000 -0.000

 Mode:                10                     11                     12
 Frequency:       978.07                 994.52                 994.52
 Force Cnst:      0.5791                 0.6059                 0.6059
 Red. Mass:       1.0275                 1.0397                 1.0397
 IR Active:          YES                    YES                    YES
 IR Intens:        0.000                117.325                117.324
 Raman Active:       YES                    YES                    YES
               X      Y      Z        X      Y      Z        X      Y      Z
 Si        -0.013 -0.014  0.000   -0.018 -0.016  0.000   -0.016  0.018 -0.000
 Si         0.013  0.014 -0.000   -0.018 -0.016 -0.000   -0.016  0.018  0.000
 H          0.064 -0.380  0.155   -0.064  0.363 -0.141   -0.059 -0.396 -0.130
 H         -0.448 -0.228  0.064    0.464  0.246 -0.042    0.058  0.132  0.187
 H         -0.061  0.139 -0.219    0.098 -0.153  0.183    0.457 -0.234 -0.057
 H          0.061 -0.139  0.219    0.098 -0.153  0.183    0.457 -0.234 -0.058
 H          0.448  0.228 -0.064    0.464  0.246 -0.042    0.058  0.132  0.187
 H         -0.064  0.380 -0.155   -0.064  0.363 -0.141   -0.059 -0.396 -0.130
 TransDip  -0.000  0.000 -0.000   -0.256 -0.235 -0.000   -0.235  0.256  0.000

 Mode:                13                     14                     15
 Frequency:      2299.29                2307.86                2307.86
 Force Cnst:      3.1719                 3.2954                 3.2954
 Red. Mass:       1.0183                 1.0501                 1.0501
 IR Active:          YES                    YES                    YES
 IR Intens:      130.262                  0.000                  0.000
 Raman Active:       YES                    YES                    YES
               X      Y      Z        X      Y      Z        X      Y      Z
 Si         0.000  0.000  0.014    0.026  0.011  0.000    0.011 -0.026  0.000
 Si        -0.000 -0.000  0.014   -0.026 -0.011 -0.000   -0.011  0.026 -0.000
 H          0.387 -0.000 -0.129    0.497 -0.004 -0.188    0.210  0.010 -0.079
 H         -0.194  0.335 -0.129    0.024 -0.063  0.025    0.269 -0.463  0.202
 H         -0.194 -0.335 -0.129    0.209  0.376  0.162   -0.170 -0.277 -0.123
 H         -0.194 -0.335 -0.129   -0.209 -0.376 -0.162    0.170  0.277  0.123
 H         -0.194  0.335 -0.129   -0.024  0.063 -0.025   -0.269  0.463 -0.202
 H          0.387 -0.000 -0.129   -0.497  0.004  0.188   -0.210 -0.010  0.079
 TransDip   0.000 -0.000  0.366   -0.000  0.000 -0.000    0.000  0.000  0.000

 Mode:                16                     17                     18
 Frequency:      2308.80                2316.06                2316.06
 Force Cnst:      3.2018                 3.3260                 3.3260
 Red. Mass:       1.0195                 1.0524                 1.0524
 IR Active:          YES                    YES                    YES
 IR Intens:        0.000                232.381                232.380
 Raman Active:       YES                    YES                    YES
               X      Y      Z        X      Y      Z        X      Y      Z
 Si         0.000 -0.000 -0.015   -0.025 -0.015  0.000    0.015 -0.025 -0.000
 Si        -0.000  0.000  0.015   -0.025 -0.015 -0.000    0.015 -0.025  0.000
 H          0.384 -0.000 -0.137    0.463 -0.004 -0.173   -0.278 -0.007  0.104
 H         -0.192  0.333 -0.137   -0.012  0.004 -0.003   -0.270  0.468 -0.202
 H         -0.192 -0.333 -0.137    0.233  0.411  0.177    0.137  0.223  0.098
 H          0.192  0.333  0.137    0.233  0.411  0.177    0.137  0.223  0.098
 H          0.192 -0.333  0.137   -0.012  0.004 -0.003   -0.270  0.468 -0.202
 H         -0.384 -0.000  0.137    0.463 -0.004 -0.173   -0.278 -0.007  0.104
 TransDip  -0.000 -0.000 -0.000   -0.419 -0.251 -0.000    0.251 -0.419 -0.000

 STANDARD THERMODYNAMIC QUANTITIES AT   298.15 K  AND     1.00 ATM

   This Molecule has  0 Imaginary Frequencies
   Zero point vibrational energy:       31.999 kcal/mol

   Atom    1 Element Si Has Mass   27.97693
   Atom    2 Element Si Has Mass   27.97693
   Atom    3 Element H  Has Mass    1.00783
   Atom    4 Element H  Has Mass    1.00783
   Atom    5 Element H  Has Mass    1.00783
   Atom    6 Element H  Has Mass    1.00783
   Atom    7 Element H  Has Mass    1.00783
   Atom    8 Element H  Has Mass    1.00783
   Molecular Mass:    62.000840 amu
   Principal axes and moments of inertia in amu*Bohr^2:
                             1           2           3
    Eigenvalues --       41.51712   355.89568   355.89568
          X              -0.00000     0.99459    -0.10385
          Y               0.00000     0.10385     0.99459
          Z               1.00000     0.00000    -0.00000
   Rotational Symmetry Number is   6
   The Molecule is a Symmetric Top
   Translational Enthalpy:        0.889 kcal/mol
   Rotational Enthalpy:           0.889 kcal/mol
   Vibrational Enthalpy:         33.287 kcal/mol
   gas constant (RT):             0.592 kcal/mol
   Translational Entropy:        38.293  cal/mol.K
   Rotational Entropy:           19.618  cal/mol.K
   Vibrational Entropy:           6.821  cal/mol.K

   Total Enthalpy:               35.657 kcal/mol
   Total Entropy:                64.732  cal/mol.K
Archival summary:
1\1\mm2.localdomain\FREQ\MP2\6-311+G**\i26\xuedong\WedMay1510:23:022019WedMay1510:23:022019\0\\#,FREQ,MP2,6-311+G**,\\0,1\Si\H,1,1.47793\H,1,1.47793,2,108.681\H,1,1.47793,2,108.681,3,-118.115,0\Si,1,2.34204,2,110.25,3,120.942,0\H,5,1.47793,1,110.25,2,-60,0\H,5,1.47793,1,110.25,2,60,0\H,5,1.47793,1,110.25,2,180,0\\HF=-581.356016\MP2=-581.573079\\@

 Total job time:  47.32s(wall), 133.61s(cpu) 
 Wed May 15 10:23:02 2019

        *************************************************************
        *                                                           *
        *  Thank you very much for using Q-Chem.  Have a nice day.  *
        *                                                           *
        *************************************************************


