
Running Job 1 of 2 11.freq.qcinp
qchem 11.freq.qcinp_11792.0 /scratch/xuedong/qchem11792/ 1
/home/qwang/software/qchem5.1/exe/qcprog.exe_s 11.freq.qcinp_11792.0 /scratch/xuedong/qchem11792/
Check license passed

                  Welcome to Q-Chem
     A Quantum Leap Into The Future Of Chemistry


 Q-Chem 5.1, Q-Chem, Inc., Pleasanton, CA (2018)

 Yihan Shao,  Zhengting Gan,  E. Epifanovsky,  A. T. B. Gilbert,  M. Wormit,  
 J. Kussmann,  A. W. Lange,  A. Behn,  Jia Deng,  Xintian Feng,  D. Ghosh,  
 M. Goldey,  P. R. Horn,  L. D. Jacobson,  I. Kaliman,  T. Kus,  A. Landau,  
 Jie Liu,  E. I. Proynov,  R. M. Richard,  R. P. Steele,  E. J. Sundstrom,  
 H. L. Woodcock III,  P. M. Zimmerman,  D. Zuev,  B. Albrecht,  E. Alguire,  
 S. A. Baeppler,  D. Barton,  Z. Benda,  Y. A. Bernard,  E. J. Berquist,  
 K. B. Bravaya,  H. Burton,  D. Casanova,  Chun-Min Chang,  Yunqing Chen,  
 A. Chien,  K. D. Closser,  M. P. Coons,  S. Coriani,  S. Dasgupta,  
 A. L. Dempwolff,  M. Diedenhofen,  Hainam Do,  R. G. Edgar,  Po-Tung Fang,  
 S. Faraji,  S. Fatehi,  Qingguo Feng,  K. D. Fenk,  J. Fosso-Tande,  
 Qinghui Ge,  A. Ghysels,  G. Gidofalvi,  J. Gomes,  J. Gonthier,  A. Gunina,  
 D. Hait,  M. W. D. Hanson-Heine,  P. H. P. Harbach,  A. W. Hauser,  
 J. E. Herr,  E. G. Hohenstein,  Z. C. Holden,  Kerwin Hui,  B. C. Huynh,  
 T.-C. Jagau,  Hyunjun Ji,  B. Kaduk,  K. Khistyaev,  Jaehoon Kim,  
 P. Klunzinger,  K. Koh,  D. Kosenkov,  L. Koulias,  T. Kowalczyk,  
 C. M. Krauter,  A. Kunitsa,  Ka Un Lao,  A. Laurent,  K. V. Lawler,  
 Joonho Lee,  D. Lefrancois,  S. Lehtola,  D. S. Levine,  Yi-Pei Li,  
 You-Sheng Lin,  Fenglai Liu,  E. Livshits,  A. Luenser,  P. Manohar,  
 E. Mansoor,  S. F. Manzer,  Shan-Ping Mao,  Yuezhi Mao,  N. Mardirossian,  
 A. V. Marenich,  T. Markovich,  L. A. Martinez-Martinez,  S. A. Maurer,  
 N. J. Mayhall,  S. C. McKenzie,  J.-M. Mewes,  A. F. Morrison,  
 J. W. Mullinax,  K. Nanda,  T. S. Nguyen-Beck,  R. Olivares-Amaya,  
 J. A. Parkhill,  T. M. Perrine,  F. Plasser,  P. Pokhilko,  S. Prager,  
 A. Prociuk,  E. Ramos,  D. R. Rehn,  F. Rob,  M. Schneider,  N. Sergueev,  
 S. M. Sharada,  S. Sharma,  D. W. Small,  T. Stauch,  T. Stein,  
 Yu-Chuan Su,  A. J. W. Thom,  A. Tkatchenko,  T. Tsuchimochi,  N. M. Tubman,  
 L. Vogt,  M. L. Vidal,  O. Vydrov,  M. A. Watson,  J. Wenzel,  
 M. de Wergifosse,  T. A. Wesolowski,  A. White,  J. Witte,  A. Yamada,  
 Jun Yang,  K. Yao,  S. Yeganeh,  S. R. Yost,  Zhi-Qiang You,  A. Zech,  
 Igor Ying Zhang,  Xing Zhang,  Yan Zhao,  Ying Zhu,  B. R. Brooks,  
 G. K. L. Chan,  C. J. Cramer,  M. S. Gordon,  W. J. Hehre,  A. Klamt,  
 M. W. Schmidt,  C. D. Sherrill,  D. G. Truhlar,  A. Aspuru-Guzik,  R. Baer,  
 A. T. Bell,  N. A. Besley,  Jeng-Da Chai,  R. A. DiStasio Jr.,  A. Dreuw,  
 B. D. Dunietz,  T. R. Furlani,  Chao-Ping Hsu,  Yousung Jung,  Jing Kong,  
 D. S. Lambrecht,  WanZhen Liang,  C. Ochsenfeld,  V. A. Rassolov,  
 L. V. Slipchenko,  J. E. Subotnik,  T. Van Voorhis,  J. M. Herbert,  
 A. I. Krylov,  P. M. W. Gill,  M. Head-Gordon

 Contributors to earlier versions of Q-Chem not listed above: 
 R. D. Adamson,  B. Austin,  J. Baker,  G. J. O. Beran,  K. Brandhorst,  
 S. T. Brown,  E. F. C. Byrd,  A. K. Chakraborty,  C.-L. Cheng,  
 Siu Hung Chien,  D. M. Chipman,  D. L. Crittenden,  H. Dachsel,  
 R. J. Doerksen,  A. D. Dutoi,  L. Fusti-Molnar,  W. A. Goddard III,  
 A. Golubeva-Zadorozhnaya,  S. R. Gwaltney,  G. Hawkins,  A. Heyden,  
 S. Hirata,  G. Kedziora,  F. J. Keil,  C. Kelley,  Jihan Kim,  R. A. King,  
 R. Z. Khaliullin,  P. P. Korambath,  W. Kurlancheek,  A. M. Lee,  M. S. Lee,  
 S. V. Levchenko,  Ching Yeh Lin,  D. Liotard,  R. C. Lochan,  I. Lotan,  
 P. E. Maslen,  N. Nair,  D. P. O'Neill,  D. Neuhauser,  E. Neuscamman,  
 C. M. Oana,  R. Olson,  B. Peters,  R. Peverati,  P. A. Pieniazek,  
 Y. M. Rhee,  J. Ritchie,  M. A. Rohrdanz,  E. Rosta,  N. J. Russ,  
 H. F. Schaefer III,  N. E. Schultz,  N. Shenvi,  A. C. Simmonett,  A. Sodt,  
 D. Stuck,  K. S. Thanthiriwatte,  V. Vanovschi,  Tao Wang,  A. Warshel,  
 C. F. Williams,  Q. Wu,  X. Xu,  W. Zhang

 Please cite Q-Chem as follows:
 Y. Shao et al., Mol. Phys. 113, 184-215 (2015)
 DOI: 10.1080/00268976.2014.952696

 Q-Chem 5.1.0 for Intel X86 EM64T Linux

 Parts of Q-Chem use Armadillo 8.300.2 (Tropical Shenanigans).
 http://arma.sourceforge.net/

 Q-Chem begins on Sun Jun 21 20:40:19 2020  

Host: 
0

     Scratch files written to /scratch/xuedong/qchem11792//
 May118 |scratch|qcdevops|jenkins|workspace|build_RNUM 6581   
Processing $rem in /home/qwang/software/qchem5.1/config/preferences.
 MEM_TOTAL  2000 
Core orbitals will be frozen

Checking the input file for inconsistencies... 	...done.

--------------------------------------------------------------
User input:
--------------------------------------------------------------
$molecule
0 1
C        -0.5181335455   -1.5448244342    1.0789763596
Si       -0.4176060448   -0.0000088188   -0.0047181491
C        -1.8587287117    0.0026668154   -1.2260616887
C        -0.5183801422    1.5398248960    1.0860205823
C         1.2123935846    0.0023153075   -0.9688171591
C         2.4700188541    0.0005054933   -0.0900329286
H         0.2841633249   -1.5684191814    1.8229899192
H        -1.4691486420   -1.5844162369    1.6198693962
H        -0.4410293720   -2.4568377427    0.4781737585
H        -1.8321899930    0.8874949504   -1.8700848514
H        -2.8213964399    0.0015389870   -0.7047670735
H        -1.8322095838   -0.8793382580   -1.8739461291
H        -0.4414741021    2.4545928044    0.4893953493
H         0.2839433890    1.5601661090    1.8301015506
H        -1.4693792683    1.5767589606    1.6271295869
H         1.2260380993    0.8789882439   -1.6299180349
H         1.2262321117   -0.8714144206   -1.6337990563
H         3.3839832004    0.0019224482   -0.6925203068
H         2.5039072871    0.8815886403    0.5578576545
H         2.5040842193   -0.8834150808    0.5539727900
$end

$rem
JOBTYPE  =  opt
METHOD  =  MP2
BASIS  =  6-311G+(d,p)
SCF_MAX_CYCLES  =  200
GEOM_OPT_MAX_CYCLES  =  300
GEOM_OPT_TOL_DISPLACEMENT = 120
GEOM_OPT_TOL_ENERGY = 10
GEOM_OPT_TOL_GRADIENT = 20
$end
--------------------------------------------------------------
 ----------------------------------------------------------------
             Standard Nuclear Orientation (Angstroms)
    I     Atom           X                Y                Z
 ----------------------------------------------------------------
    1      C      -0.5228983865    -1.5413338472     1.0851986347
    2      Si     -0.4172875965    -0.0000026916    -0.0029647180
    3      C      -1.8528751780    -0.0010801085    -1.2308119709
    4      C      -0.5228046034     1.5433222450     1.0823778867
    5      C       1.2170530336    -0.0009350864    -0.9596887796
    6      C       2.4706934424    -0.0000679379    -0.0752277623
    7      H       0.2760247633    -1.5626341823     1.8329026228
    8      H      -1.4763531818    -1.5790945526     1.6219113921
    9      H      -0.4431896394    -2.4552721634     0.4876700884
   10      H      -1.8233192085     0.8816809617    -1.8775347119
   11      H      -2.8178892669    -0.0004384786    -0.7138730003
   12      H      -1.8235345456    -0.8851555477    -1.8757462365
   13      H      -0.4430924361     2.4561691738     0.4831842712
   14      H       0.2761502039     1.5659578578     1.8300089093
   15      H      -1.4762351705     1.5820877040     1.6190619750
   16      H       1.2337911319     0.8736175786    -1.6235211759
   17      H       1.2337914678    -0.8767885569    -1.6218040182
   18      H       3.3873716441    -0.0006749406    -0.6735793154
   19      H       2.5017596144     0.8830791833     0.5699886362
   20      H       2.5017411257    -0.8819279446     0.5717485633
 ----------------------------------------------------------------
 Molecular Point Group                 C1    NOp =  1
 Largest Abelian Subgroup              C1    NOp =  1
 Nuclear Repulsion Energy =   319.2424486097 hartrees
 There are       29 alpha and       29 beta electrons
 Requested basis set is 6-311+G(d,p)
 There are 99 shells and 224 basis functions

 Total QAlloc Memory Limit   2000 MB
 Mega-Array Size       188 MB
 MEM_STATIC part       192 MB
 A cutoff of  1.0D-11 yielded   4518 shell pairs
 There are     23750 function pairs (     25095 Cartesian)
 
 -------------------------------------------------------
 OpenMP Integral Computing Module                       
 Release: version 1.0, May 2013, Q-Chem Inc. Pittsburgh 
 -------------------------------------------------------
 Integral Job Info:
 Integral job number is                      11
 Integral operator is                         1
 short-range coefficients                     0
 long-range coefficients              100000000
 Omega coefficients                           0
 if combine SR and LR in K                    0
 Integral screening is                        0
 Integral computing path is                   2
 max size of driver memory is            800000
 size of driver memory is                593474
 size of scratch memory is              4204008
 max col of scratch BK array               1296
 max len of scratch array in speh3          155
 max len of scratch index in speh4           18
 max int batch size is                      520
 min int batch size is                       52
 fixed nKL is                                52
 max L of basis functions is                  2
 order of int derivative is                   0
 number of shells is                         99
 number of basis is                         230
 number of cartesian basis is               230
 number of contracted shell pairs          4518
 number of primitive shell pairs           9961
 maxK2 (contraction) of shell pair           36
 max number of K2 of shell pair               1
 max number of CS2 of shell pair            596
 max number of PS2 of shell pair           1287
 mem total for path MDJ                  527786
 -------------------------------------------------------
 Smallest overlap matrix eigenvalue = 5.75E-05

 Scale SEOQF with 1.000000e-01/1.000000e-01/1.000000e-01

 Standard Electronic Orientation quadrupole field applied
 Nucleus-field energy     =     0.0000000023 hartrees
 Guess from superposition of atomic densities
 Warning:  Energy on first SCF cycle will be non-variational
 SAD guess density has 58.000000 electrons

 -----------------------------------------------------------------------
  General SCF calculation program by
  Eric Jon Sundstrom, Paul Horn, Yuezhi Mao, Dmitri Zuev, Alec White,
  David Stuck, Shaama M.S., Shane Yost, Joonho Lee, David Small,
  Daniel Levine, Susi Lehtola, Hugh Burton, Evgeny Epifanovsky
 -----------------------------------------------------------------------
 Hartree-Fock
 using 4 threads for integral computing
 -------------------------------------------------------
 OpenMP Integral computing Module                
 Release: version 1.0, May 2013, Q-Chem Inc. Pittsburgh 
 -------------------------------------------------------
 A restricted SCF calculation will be
 performed using DIIS
 SCF converges when DIIS error is below 1.0e-08
 ---------------------------------------
  Cycle       Energy         DIIS error
 ---------------------------------------
    1    -488.1572296674      3.98e-02  
    2    -486.4464282751      2.90e-03  
    3    -486.5137770087      8.63e-04  
    4    -486.5201440870      3.21e-04  
    5    -486.5210451241      3.74e-05  
    6    -486.5210670742      1.12e-05  
    7    -486.5210682395      2.53e-06  
    8    -486.5210683359      5.13e-07  
    9    -486.5210683384      1.10e-07  
   10    -486.5210683385      2.60e-08  
   11    -486.5210683386      6.86e-09  Convergence criterion met
 ---------------------------------------
 SCF time:   CPU 41.29s  wall 10.00s 
 SCF   energy in the final basis set =     -486.5210683386
 Total energy in the final basis set =     -486.5210683386
 
 Components of the MP2 correlation energy:
        aaaa  correlation energy =        -0.0972798892 au
        abab  correlation energy =        -0.6871545284 au
        bbbb  correlation energy =        -0.0972798892 au
        non-Brillouin singles    =        -0.0000000000 au

 Total  MP2   correlation energy =                    -0.88171431 au
        MP2         total energy =                  -487.40278265 au
  Entering Z-vector solver.
   1         0           1      0.000176    0.000176
   2         0           1      0.000044    0.000044
   3         0           1      0.000007    0.000007
   4         0           1      0.000002    0.000002
   5         1           0      0.000000    0.000000    Roots Converged
 
 --------------------------------------------------------------
 
                    Orbital Energies (a.u.)
 --------------------------------------------------------------
 
 Alpha MOs
 -- Occupied --
-68.749 -11.215 -11.200 -11.195 -11.195 -11.195  -6.095  -4.202
 -4.202  -4.202  -1.017  -0.957  -0.919  -0.919  -0.833  -0.630
 -0.600  -0.577  -0.559  -0.557  -0.546  -0.533  -0.533  -0.526
 -0.503  -0.486  -0.422  -0.422  -0.403
 -- Virtual --
  0.052   0.065   0.071   0.075   0.105   0.111   0.114   0.121
  0.123   0.141   0.146   0.152   0.154   0.158   0.159   0.174
  0.180   0.184   0.186   0.209   0.213   0.217   0.222   0.239
  0.267   0.273   0.278   0.280   0.296   0.300   0.307   0.312
  0.331   0.355   0.357   0.370   0.372   0.376   0.394   0.400
  0.421   0.422   0.480   0.482   0.485   0.491   0.496   0.534
  0.558   0.583   0.639   0.654   0.660   0.683   0.684   0.694
  0.705   0.719   0.736   0.739   0.797   0.839   0.848   0.856
  0.863   0.870   0.874   0.897   0.910   0.911   0.927   0.933
  0.935   0.950   0.956   0.982   0.991   1.011   1.063   1.094
  1.113   1.115   1.136   1.166   1.186   1.246   1.275   1.286
  1.296   1.373   1.390   1.458   1.490   1.499   1.535   1.645
  1.728   1.732   1.738   1.738   1.759   1.760   1.773   1.818
  1.833   1.835   1.841   1.851   1.857   1.867   1.882   1.897
  1.901   1.919   1.966   1.969   1.997   2.007   2.011   2.020
  2.066   2.075   2.085   2.102   2.106   2.142   2.192   2.328
  2.342   2.345   2.371   2.375   2.430   2.482   2.496   2.502
  2.506   2.541   2.557   2.577   2.634   2.654   2.746   2.782
  2.796   2.798   2.816   2.825   2.852   2.874   2.893   2.915
  2.917   2.920   2.929   2.932   2.951   2.957   2.966   2.974
  2.989   2.991   2.998   3.033   3.059   3.094   3.171   3.228
  3.293   3.354   3.479   3.586   3.710   3.721   3.764   4.138
  4.145   4.150   4.159   4.181   4.192   4.195   4.215   4.224
  4.603   6.326  12.438  12.442  12.453  25.041  25.118  25.118
 25.129  25.152 144.083
 --------------------------------------------------------------
 
          Ground-State Mulliken Net Atomic Charges

     Atom                 Charge (a.u.)
  ----------------------------------------
      1 C                    -0.806143
      2 Si                    1.138977
      3 C                    -0.756900
      4 C                    -0.806141
      5 C                    -0.424553
      6 C                    -0.597617
      7 H                     0.163845
      8 H                     0.166799
      9 H                     0.168731
     10 H                     0.164680
     11 H                     0.164066
     12 H                     0.164681
     13 H                     0.168732
     14 H                     0.163845
     15 H                     0.166798
     16 H                     0.164500
     17 H                     0.164502
     18 H                     0.143585
     19 H                     0.143808
     20 H                     0.143805
  ----------------------------------------
  Sum of atomic charges =     0.000000

 -----------------------------------------------------------------
                    Cartesian Multipole Moments
 -----------------------------------------------------------------
    Charge (ESU x 10^10)
                 0.0000
    Dipole Moment (Debye)
         X       0.0392      Y      -0.0001      Z      -0.0730
       Tot       0.0828
    Quadrupole Moments (Debye-Ang)
        XX     -50.5584     XY      -0.0005     YY     -50.3513
        XZ      -0.5458     YZ      -0.0002     ZZ     -50.5435
    Octopole Moments (Debye-Ang^2)
       XXX      -1.4225    XXY       0.0035    XYY       1.3974
       YYY      -0.0161    XXZ       3.7507    XYZ       0.0001
       YYZ      -5.8036    XZZ       1.9385    YZZ       0.0108
       ZZZ       0.1585
    Hexadecapole Moments (Debye-Ang^3)
      XXXX    -679.5422   XXXY      -0.0173   XXYY    -171.2542
      XYYY       0.0113   YYYY    -353.4234   XXXZ     -17.7817
      XXYZ       0.0005   XYYZ       3.9693   YYYZ      -0.0012
      XXZZ    -171.8177   XYZZ      -0.0083   YYZZ    -118.4220
      XZZZ      -1.0848   YZZZ       0.0009   ZZZZ    -352.8714
 -----------------------------------------------------------------
 DrvMan is completing analytic gradient of the MP2 energy
 MP2 relaxed dipole moment
            1
    1   0.0154131
    2  -0.0000263
    3  -0.0287074
	Magnitude:	 0.033 au	 0.083 Debye
 MP2 energy read as -487.402783
 Full Analytical Gradient of MP2 Energy (in au.)
             1             2             3             4             5
    1   -0.00044633    0.00102607   -0.00182933   -0.00044665    0.00261445
    2   -0.00212764    0.00000047   -0.00000163    0.00213031   -0.00000028
    3    0.00128488    0.00052735   -0.00165394    0.00128075   -0.00020934
             6             7             8             9            10
    1   -0.00138740   -0.00036537    0.00043431   -0.00005540   -0.00022496
    2   -0.00000047   -0.00019249   -0.00023826    0.00017455   -0.00043261
    3   -0.00072444   -0.00020444   -0.00004766    0.00046668    0.00007282
            11            12            13            14            15
    1    0.00024301   -0.00022522   -0.00005542   -0.00036529    0.00043445
    2   -0.00000012    0.00043272   -0.00017361    0.00019192    0.00023797
    3   -0.00039721    0.00007212    0.00046722   -0.00020480   -0.00004793
            16            17            18            19            20
    1    0.00032528    0.00032539   -0.00001488    0.00000662    0.00000666
    2   -0.00022672    0.00022645   -0.00000001   -0.00036037    0.00035983
    3   -0.00010722   -0.00010741    0.00001865   -0.00024271   -0.00024336
 Gradient time:  CPU 0.13 s  wall 0.09 s
 Geometry Optimization Parameters
   NAtoms,    NIC,     NZ,  NCons,   NDum,   NFix, NCnnct, MaxDiis
       20     140       0       0       0       0       0       0


** GEOMETRY OPTIMIZATION IN DELOCALIZED INTERNAL COORDINATES **
   Searching for a Minimum

   Optimization Cycle:   1

                       Coordinates (Angstroms)
     ATOM                X               Y               Z
      1  C        -0.5228983865   -1.5413338472    1.0851986347
      2  Si       -0.4172875965   -0.0000026916   -0.0029647180
      3  C        -1.8528751780   -0.0010801085   -1.2308119709
      4  C        -0.5228046034    1.5433222450    1.0823778867
      5  C         1.2170530336   -0.0009350864   -0.9596887796
      6  C         2.4706934424   -0.0000679379   -0.0752277623
      7  H         0.2760247633   -1.5626341823    1.8329026228
      8  H        -1.4763531818   -1.5790945526    1.6219113921
      9  H        -0.4431896394   -2.4552721634    0.4876700884
     10  H        -1.8233192085    0.8816809617   -1.8775347119
     11  H        -2.8178892669   -0.0004384786   -0.7138730003
     12  H        -1.8235345456   -0.8851555477   -1.8757462365
     13  H        -0.4430924361    2.4561691738    0.4831842712
     14  H         0.2761502039    1.5659578578    1.8300089093
     15  H        -1.4762351705    1.5820877040    1.6190619750
     16  H         1.2337911319    0.8736175786   -1.6235211759
     17  H         1.2337914678   -0.8767885569   -1.6218040182
     18  H         3.3873716441   -0.0006749406   -0.6735793154
     19  H         2.5017596144    0.8830791833    0.5699886362
     20  H         2.5017411257   -0.8819279446    0.5717485633
   Point Group: c1    Number of degrees of freedom:    54


   Energy is   -487.402782645


 Attempting to Generate Delocalized Internal Coordinates

 53 Hessian modes will be used to form the next step
  Hessian Eigenvalues:
     0.002000    0.002435    0.002435    0.002520    0.004650    0.033162
     0.046584    0.047544    0.047654    0.047893    0.053537    0.053537
     0.053940    0.053949    0.054149    0.054149    0.055268    0.086466
     0.124320    0.143471    0.144252    0.160000    0.160000    0.160000
     0.160000    0.160000    0.160000    0.160000    0.160000    0.160000
     0.160000    0.160000    0.160000    0.199308    0.201566    0.201566
     0.201925    0.219143    0.290355    0.338945    0.338945    0.342591
     0.342592    0.342650    0.342650    0.342694    0.342739    0.342739
     0.342774    0.343048    0.343048    0.343346    0.343346

 Minimum Search - Taking Simple RFO Step
 Searching for Lamda that Minimizes Along All modes
 Value Taken    Lamda =  -0.00018531
 Step Taken.  Stepsize is  0.034171

                             Maximum     Tolerance    Cnvgd?
         Gradient           0.004449      0.000020      NO
         Displacement       0.025271      0.000120      NO
         Energy change     *********      0.000000      NO


 New Cartesian Coordinates Obtained by Inverse Iteration

 Displacement from previous Coordinates is:  0.075775
 ----------------------------------------------------------------
             Standard Nuclear Orientation (Angstroms)
    I     Atom           X                Y                Z
 ----------------------------------------------------------------
    1      C      -0.5191863381    -1.5343035979     1.0794174378
    2      Si     -0.4185368720     0.0000029662    -0.0062671602
    3      C      -1.8510632722    -0.0010871834    -1.2264615569
    4      C      -0.5191172482     1.5363098276     1.0765908846
    5      C       1.2111534195    -0.0009157089    -0.9581491014
    6      C       2.4660083085    -0.0000964034    -0.0696597091
    7      H       0.2808737558    -1.5516790067     1.8269165556
    8      H      -1.4736021068    -1.5722251070     1.6156492392
    9      H      -0.4373192332    -2.4480535954     0.4807495531
   10      H      -1.8213676803     0.8828923314    -1.8725525238
   11      H      -2.8148352650    -0.0005036948    -0.7059033229
   12      H      -1.8215036836    -0.8863339913    -1.8708210266
   13      H      -0.4372404859     2.4489578125     0.4762459871
   14      H       0.2809610998     1.5550353836     1.8240378730
   15      H      -1.4735192472     1.5752396762     1.6127749670
   16      H       1.2259201078     0.8746101818    -1.6210310014
   17      H       1.2258933648    -0.8776938693    -1.6193747094
   18      H       3.3837233230    -0.0006931680    -0.6664845547
   19      H       2.4958501318     0.8836225505     0.5759643220
   20      H       2.4958051354    -0.8825767378     0.5776591378
 ----------------------------------------------------------------
 Molecular Point Group                 C1    NOp =  1
 Largest Abelian Subgroup              C1    NOp =  1
 Nuclear Repulsion Energy =   320.0276339286 hartrees
 There are       29 alpha and       29 beta electrons
 Applying Cartesian multipole field
    Component          Value
    ---------          -----
     (2,0,0)        1.00000E-11
     (0,2,0)        2.00000E-11
     (0,0,2)       -3.00000E-11
 Nucleus-field energy     =     0.0000000023 hartrees
 Requested basis set is 6-311+G(d,p)
 There are 99 shells and 224 basis functions
 A cutoff of  1.0D-11 yielded   4520 shell pairs
 There are     23758 function pairs (     25103 Cartesian)
 Smallest overlap matrix eigenvalue = 5.81E-05
 Guess MOs from SCF MO coefficient file
 Reading MOs from coefficient file
 Reading MOs from coefficient file

 -----------------------------------------------------------------------
  General SCF calculation program by
  Eric Jon Sundstrom, Paul Horn, Yuezhi Mao, Dmitri Zuev, Alec White,
  David Stuck, Shaama M.S., Shane Yost, Joonho Lee, David Small,
  Daniel Levine, Susi Lehtola, Hugh Burton, Evgeny Epifanovsky
 -----------------------------------------------------------------------
 Hartree-Fock
 using 4 threads for integral computing
 -------------------------------------------------------
 OpenMP Integral computing Module                
 Release: version 1.0, May 2013, Q-Chem Inc. Pittsburgh 
 -------------------------------------------------------
 A restricted SCF calculation will be
 performed using DIIS
 SCF converges when DIIS error is below 1.0e-08
 ---------------------------------------
  Cycle       Energy         DIIS error
 ---------------------------------------
    1    -486.5213201970      2.03e-04  
    2    -486.5208714777      2.29e-05  
    3    -486.5208755956      7.93e-06  
    4    -486.5208761220      2.57e-06  
    5    -486.5208762103      6.00e-07  
    6    -486.5208762151      1.31e-07  
    7    -486.5208762153      4.06e-08  
    8    -486.5208762153      7.51e-09  Convergence criterion met
 ---------------------------------------
 SCF time:   CPU 32.04s  wall 8.00s 
 SCF   energy in the final basis set =     -486.5208762153
 Total energy in the final basis set =     -486.5208762153
 
 Components of the MP2 correlation energy:
        aaaa  correlation energy =        -0.0973653279 au
        abab  correlation energy =        -0.6872644816 au
        bbbb  correlation energy =        -0.0973653279 au
        non-Brillouin singles    =        -0.0000000000 au

 Total  MP2   correlation energy =                    -0.88199514 au
        MP2         total energy =                  -487.40287135 au
  Entering Z-vector solver.
   1         0           1      0.000176    0.000176
   2         0           1      0.000044    0.000044
   3         0           1      0.000007    0.000007
   4         0           1      0.000002    0.000002
   5         1           0      0.000000    0.000000    Roots Converged
 
 --------------------------------------------------------------
 
                    Orbital Energies (a.u.)
 --------------------------------------------------------------
 
 Alpha MOs
 -- Occupied --
-68.746 -11.216 -11.200 -11.195 -11.194 -11.194  -6.093  -4.200
 -4.200  -4.200  -1.016  -0.957  -0.919  -0.919  -0.834  -0.630
 -0.600  -0.577  -0.559  -0.557  -0.546  -0.533  -0.533  -0.526
 -0.503  -0.486  -0.423  -0.422  -0.403
 -- Virtual --
  0.052   0.064   0.071   0.075   0.105   0.111   0.115   0.121
  0.123   0.141   0.146   0.152   0.154   0.158   0.159   0.174
  0.181   0.184   0.186   0.209   0.213   0.217   0.221   0.239
  0.268   0.273   0.279   0.281   0.296   0.299   0.307   0.312
  0.331   0.356   0.357   0.372   0.372   0.377   0.395   0.401
  0.421   0.423   0.480   0.483   0.487   0.491   0.497   0.534
  0.558   0.583   0.638   0.653   0.660   0.684   0.684   0.696
  0.706   0.719   0.736   0.740   0.799   0.839   0.848   0.856
  0.863   0.870   0.874   0.896   0.910   0.911   0.927   0.932
  0.936   0.950   0.955   0.983   0.991   1.010   1.065   1.093
  1.118   1.121   1.140   1.168   1.187   1.248   1.276   1.287
  1.297   1.375   1.393   1.459   1.493   1.503   1.535   1.646
  1.726   1.731   1.738   1.738   1.761   1.761   1.775   1.817
  1.834   1.835   1.841   1.851   1.857   1.866   1.886   1.896
  1.900   1.918   1.968   1.968   1.998   2.007   2.012   2.021
  2.068   2.077   2.088   2.105   2.111   2.143   2.192   2.329
  2.343   2.344   2.369   2.373   2.430   2.481   2.496   2.502
  2.506   2.542   2.558   2.578   2.633   2.653   2.747   2.783
  2.797   2.798   2.816   2.825   2.852   2.874   2.891   2.914
  2.917   2.920   2.929   2.932   2.951   2.958   2.968   2.973
  2.991   2.991   3.000   3.033   3.062   3.096   3.172   3.230
  3.299   3.358   3.484   3.586   3.716   3.727   3.766   4.137
  4.143   4.149   4.159   4.181   4.191   4.194   4.214   4.222
  4.600   6.335  12.444  12.448  12.461  25.038  25.117  25.117
 25.128  25.151 144.094
 --------------------------------------------------------------
 
          Ground-State Mulliken Net Atomic Charges

     Atom                 Charge (a.u.)
  ----------------------------------------
      1 C                    -0.807042
      2 Si                    1.142775
      3 C                    -0.757860
      4 C                    -0.807042
      5 C                    -0.428611
      6 C                    -0.596892
      7 H                     0.163974
      8 H                     0.166798
      9 H                     0.168814
     10 H                     0.164998
     11 H                     0.164418
     12 H                     0.164998
     13 H                     0.168815
     14 H                     0.163974
     15 H                     0.166797
     16 H                     0.164639
     17 H                     0.164640
     18 H                     0.143999
     19 H                     0.143904
     20 H                     0.143902
  ----------------------------------------
  Sum of atomic charges =     0.000000

 -----------------------------------------------------------------
                    Cartesian Multipole Moments
 -----------------------------------------------------------------
    Charge (ESU x 10^10)
                 0.0000
    Dipole Moment (Debye)
         X       0.0289      Y      -0.0001      Z      -0.0813
       Tot       0.0863
    Quadrupole Moments (Debye-Ang)
        XX     -50.5363     XY      -0.0005     YY     -50.3659
        XZ      -0.5211     YZ      -0.0002     ZZ     -50.5505
    Octopole Moments (Debye-Ang^2)
       XXX      -1.3779    XXY       0.0035    XYY       1.4192
       YYY      -0.0167    XXZ       3.8766    XYZ       0.0002
       YYZ      -5.8789    XZZ       1.9341    YZZ       0.0110
       ZZZ       0.2686
    Hexadecapole Moments (Debye-Ang^3)
      XXXX    -677.0193   XXXY      -0.0150   XXYY    -170.5028
      XYYY       0.0133   YYYY    -351.5597   XXXZ     -18.4398
      XXYZ       0.0001   XYYZ       3.8272   YYYZ      -0.0017
      XXZZ    -171.2543   XYZZ      -0.0077   YYZZ    -117.8237
      XZZZ      -1.6368   YZZZ       0.0016   ZZZZ    -351.0113
 -----------------------------------------------------------------
 DrvMan is completing analytic gradient of the MP2 energy
 MP2 relaxed dipole moment
            1
    1   0.0113831
    2  -0.0000290
    3  -0.0319908
	Magnitude:	 0.034 au	 0.086 Debye
 MP2 energy read as -487.402871
 Full Analytical Gradient of MP2 Energy (in au.)
             1             2             3             4             5
    1   -0.00008371    0.00016451   -0.00013287   -0.00008382    0.00021850
    2   -0.00006002    0.00000008   -0.00000020    0.00006010    0.00000017
    3    0.00000257    0.00008434   -0.00008200    0.00000231   -0.00003785
             6             7             8             9            10
    1   -0.00029036    0.00007838   -0.00001312    0.00001530    0.00005946
    2    0.00000011    0.00002631    0.00009263    0.00005850    0.00003777
    3   -0.00002966    0.00002486   -0.00002939   -0.00007546    0.00001248
            11            12            13            14            15
    1   -0.00001228    0.00005915    0.00001525    0.00007842   -0.00001311
    2    0.00000018   -0.00003780   -0.00005854   -0.00002636   -0.00009282
    3    0.00004501    0.00001267   -0.00007515    0.00002485   -0.00002924
            16            17            18            19            20
    1   -0.00016972   -0.00016966    0.00007217    0.00010374    0.00010376
    2   -0.00000404    0.00000391   -0.00000006    0.00000743   -0.00000737
    3   -0.00002286   -0.00002275    0.00002699    0.00008405    0.00008422
 Gradient time:  CPU 0.14 s  wall 0.10 s
 Geometry Optimization Parameters
   NAtoms,    NIC,     NZ,  NCons,   NDum,   NFix, NCnnct, MaxDiis
       20     140       0       0       0       0       0       0

 Cartesian Hessian Update
 Hessian Updated using BFGS Update


** GEOMETRY OPTIMIZATION IN DELOCALIZED INTERNAL COORDINATES **
   Searching for a Minimum

   Optimization Cycle:   2

                       Coordinates (Angstroms)
     ATOM                X               Y               Z
      1  C        -0.5191863381   -1.5343035979    1.0794174378
      2  Si       -0.4185368720    0.0000029662   -0.0062671602
      3  C        -1.8510632722   -0.0010871834   -1.2264615569
      4  C        -0.5191172482    1.5363098276    1.0765908846
      5  C         1.2111534195   -0.0009157089   -0.9581491014
      6  C         2.4660083085   -0.0000964034   -0.0696597091
      7  H         0.2808737558   -1.5516790067    1.8269165556
      8  H        -1.4736021068   -1.5722251070    1.6156492392
      9  H        -0.4373192332   -2.4480535954    0.4807495531
     10  H        -1.8213676803    0.8828923314   -1.8725525238
     11  H        -2.8148352650   -0.0005036948   -0.7059033229
     12  H        -1.8215036836   -0.8863339913   -1.8708210266
     13  H        -0.4372404859    2.4489578125    0.4762459871
     14  H         0.2809610998    1.5550353836    1.8240378730
     15  H        -1.4735192472    1.5752396762    1.6127749670
     16  H         1.2259201078    0.8746101818   -1.6210310014
     17  H         1.2258933648   -0.8776938693   -1.6193747094
     18  H         3.3837233230   -0.0006931680   -0.6664845547
     19  H         2.4958501318    0.8836225505    0.5759643220
     20  H         2.4958051354   -0.8825767378    0.5776591378
   Point Group: c1    Number of degrees of freedom:    54


   Energy is   -487.402871353

 Hessian Updated using BFGS Update

 41 Hessian modes will be used to form the next step
  Hessian Eigenvalues:
     0.002000    0.002428    0.002435    0.002520    0.004650    0.033162
     0.046137    0.047533    0.047654    0.047893    0.053534    0.053537
     0.053933    0.053949    0.054149    0.054156    0.054942    0.055267
     0.087744    0.124320    0.143471    0.144193    0.158736    0.162171
     0.199411    0.200347    0.210096    0.219620    0.291405    0.338945
     0.338955    0.342261    0.342591    0.342623    0.342702    0.342734
     0.342739    0.342817    0.343215    0.343346    0.344790

 Minimum Search - Taking Simple RFO Step
 Searching for Lamda that Minimizes Along All modes
 Value Taken    Lamda =  -0.00000265
 Step Taken.  Stepsize is  0.011320

                             Maximum     Tolerance    Cnvgd?
         Gradient           0.000339      0.000020      NO
         Displacement       0.009161      0.000120      NO
         Energy change     -0.000089      0.000000      NO


 New Cartesian Coordinates Obtained by Inverse Iteration

 Displacement from previous Coordinates is:  0.013161
 ----------------------------------------------------------------
             Standard Nuclear Orientation (Angstroms)
    I     Atom           X                Y                Z
 ----------------------------------------------------------------
    1      C      -0.5190463398    -1.5344086407     1.0795212370
    2      Si     -0.4188960960     0.0000056287    -0.0065139580
    3      C      -1.8515085351    -0.0010913873    -1.2263670990
    4      C      -0.5189841469     1.5364270106     1.0766852853
    5      C       1.2111938735    -0.0009108790    -0.9583407012
    6      C       2.4660696578    -0.0001099560    -0.0700773481
    7      H       0.2795998326    -1.5503657549     1.8284150417
    8      H      -1.4741460453    -1.5742219496     1.6144293042
    9      H      -0.4347406639    -2.4485785737     0.4818031034
   10      H      -1.8224371197     0.8827952787    -1.8725636070
   11      H      -2.8151586039    -0.0005430578    -0.7056663014
   12      H      -1.8225288091    -0.8862164440    -1.8708702343
   13      H      -0.4346638681     2.4494915131     0.4772821496
   14      H       0.2796750810     1.5537426215     1.8255350381
   15      H      -1.4740738724     1.5772516812     1.6115350140
   16      H       1.2273586506     0.8746683389    -1.6211027542
   17      H       1.2273220165    -0.8777241165    -1.6194705657
   18      H       3.3835741402    -0.0006980813    -0.6671038076
   19      H       2.4951685071     0.8837508521     0.5752538465
   20      H       2.4951195548    -0.8827554179     0.5769176477
 ----------------------------------------------------------------
 Molecular Point Group                 C1    NOp =  1
 Largest Abelian Subgroup              C1    NOp =  1
 Nuclear Repulsion Energy =   320.0040397190 hartrees
 There are       29 alpha and       29 beta electrons
 Applying Cartesian multipole field
    Component          Value
    ---------          -----
     (2,0,0)        1.00000E-11
     (0,2,0)        2.00000E-11
     (0,0,2)       -3.00000E-11
 Nucleus-field energy     =     0.0000000023 hartrees
 Requested basis set is 6-311+G(d,p)
 There are 99 shells and 224 basis functions
 A cutoff of  1.0D-11 yielded   4520 shell pairs
 There are     23758 function pairs (     25103 Cartesian)
 Smallest overlap matrix eigenvalue = 5.81E-05
 Guess MOs from SCF MO coefficient file
 Reading MOs from coefficient file
 Reading MOs from coefficient file

 -----------------------------------------------------------------------
  General SCF calculation program by
  Eric Jon Sundstrom, Paul Horn, Yuezhi Mao, Dmitri Zuev, Alec White,
  David Stuck, Shaama M.S., Shane Yost, Joonho Lee, David Small,
  Daniel Levine, Susi Lehtola, Hugh Burton, Evgeny Epifanovsky
 -----------------------------------------------------------------------
 Hartree-Fock
 using 4 threads for integral computing
 -------------------------------------------------------
 OpenMP Integral computing Module                
 Release: version 1.0, May 2013, Q-Chem Inc. Pittsburgh 
 -------------------------------------------------------
 A restricted SCF calculation will be
 performed using DIIS
 SCF converges when DIIS error is below 1.0e-08
 ---------------------------------------
  Cycle       Energy         DIIS error
 ---------------------------------------
    1    -486.5209137835      2.02e-05  
    2    -486.5208902100      4.61e-06  
    3    -486.5208904887      1.24e-06  
    4    -486.5208905104      4.11e-07  
    5    -486.5208905123      7.25e-08  
    6    -486.5208905124      1.60e-08  
    7    -486.5208905124      3.83e-09  Convergence criterion met
 ---------------------------------------
 SCF time:   CPU 27.88s  wall 7.00s 
 SCF   energy in the final basis set =     -486.5208905124
 Total energy in the final basis set =     -486.5208905124
 
 Components of the MP2 correlation energy:
        aaaa  correlation energy =        -0.0973618522 au
        abab  correlation energy =        -0.6872587816 au
        bbbb  correlation energy =        -0.0973618522 au
        non-Brillouin singles    =        -0.0000000000 au

 Total  MP2   correlation energy =                    -0.88198249 au
        MP2         total energy =                  -487.40287300 au
  Entering Z-vector solver.
   1         0           1      0.000176    0.000176
   2         0           1      0.000044    0.000044
   3         0           1      0.000007    0.000007
   4         0           1      0.000002    0.000002
   5         1           0      0.000000    0.000000    Roots Converged
 
 --------------------------------------------------------------
 
                    Orbital Energies (a.u.)
 --------------------------------------------------------------
 
 Alpha MOs
 -- Occupied --
-68.746 -11.216 -11.199 -11.195 -11.194 -11.194  -6.093  -4.200
 -4.200  -4.200  -1.016  -0.957  -0.919  -0.919  -0.833  -0.630
 -0.600  -0.577  -0.559  -0.557  -0.546  -0.533  -0.533  -0.526
 -0.503  -0.486  -0.423  -0.423  -0.403
 -- Virtual --
  0.052   0.064   0.071   0.075   0.105   0.111   0.115   0.121
  0.123   0.141   0.146   0.152   0.154   0.158   0.159   0.174
  0.181   0.184   0.186   0.209   0.213   0.217   0.221   0.239
  0.268   0.273   0.279   0.281   0.296   0.299   0.307   0.312
  0.331   0.356   0.357   0.372   0.372   0.377   0.394   0.401
  0.421   0.423   0.480   0.483   0.487   0.491   0.497   0.534
  0.558   0.583   0.638   0.653   0.660   0.684   0.684   0.696
  0.706   0.719   0.736   0.740   0.799   0.839   0.848   0.856
  0.863   0.870   0.874   0.896   0.910   0.911   0.927   0.932
  0.936   0.950   0.956   0.983   0.992   1.010   1.065   1.093
  1.118   1.121   1.140   1.168   1.186   1.248   1.276   1.287
  1.297   1.375   1.393   1.459   1.492   1.503   1.535   1.646
  1.726   1.731   1.738   1.738   1.760   1.761   1.775   1.817
  1.834   1.835   1.841   1.851   1.857   1.866   1.886   1.896
  1.900   1.919   1.968   1.968   1.997   2.007   2.012   2.021
  2.068   2.077   2.088   2.105   2.111   2.143   2.193   2.329
  2.342   2.344   2.369   2.373   2.430   2.481   2.496   2.502
  2.506   2.542   2.558   2.578   2.634   2.654   2.747   2.783
  2.797   2.798   2.816   2.825   2.852   2.873   2.891   2.914
  2.917   2.920   2.929   2.932   2.951   2.958   2.969   2.973
  2.991   2.991   3.000   3.032   3.061   3.096   3.172   3.229
  3.298   3.358   3.484   3.586   3.717   3.727   3.766   4.137
  4.144   4.149   4.159   4.181   4.192   4.194   4.214   4.223
  4.599   6.334  12.444  12.447  12.461  25.039  25.117  25.117
 25.128  25.151 144.093
 --------------------------------------------------------------
 
          Ground-State Mulliken Net Atomic Charges

     Atom                 Charge (a.u.)
  ----------------------------------------
      1 C                    -0.807279
      2 Si                    1.143482
      3 C                    -0.757905
      4 C                    -0.807279
      5 C                    -0.429106
      6 C                    -0.596620
      7 H                     0.163978
      8 H                     0.166800
      9 H                     0.168842
     10 H                     0.165036
     11 H                     0.164397
     12 H                     0.165036
     13 H                     0.168842
     14 H                     0.163978
     15 H                     0.166800
     16 H                     0.164609
     17 H                     0.164609
     18 H                     0.143983
     19 H                     0.143899
     20 H                     0.143898
  ----------------------------------------
  Sum of atomic charges =     0.000000

 -----------------------------------------------------------------
                    Cartesian Multipole Moments
 -----------------------------------------------------------------
    Charge (ESU x 10^10)
                 0.0000
    Dipole Moment (Debye)
         X       0.0270      Y      -0.0001      Z      -0.0820
       Tot       0.0863
    Quadrupole Moments (Debye-Ang)
        XX     -50.5349     XY      -0.0005     YY     -50.3597
        XZ      -0.5248     YZ      -0.0002     ZZ     -50.5488
    Octopole Moments (Debye-Ang^2)
       XXX      -1.3888    XXY       0.0035    XYY       1.4196
       YYY      -0.0167    XXZ       3.8444    XYZ       0.0003
       YYZ      -5.8590    XZZ       1.9341    YZZ       0.0109
       ZZZ       0.2793
    Hexadecapole Moments (Debye-Ang^3)
      XXXX    -677.1326   XXXY      -0.0139   XXYY    -170.5128
      XYYY       0.0140   YYYY    -351.5557   XXXZ     -18.4524
      XXYZ       0.0000   XYYZ       3.8041   YYYZ      -0.0020
      XXZZ    -171.2519   XYZZ      -0.0074   YYZZ    -117.8237
      XZZZ      -1.5848   YZZZ       0.0019   ZZZZ    -351.0197
 -----------------------------------------------------------------
 DrvMan is completing analytic gradient of the MP2 energy
 MP2 relaxed dipole moment
            1
    1   0.0106225
    2  -0.0000293
    3  -0.0322578
	Magnitude:	 0.034 au	 0.086 Debye
 MP2 energy read as -487.402873
 Full Analytical Gradient of MP2 Energy (in au.)
             1             2             3             4             5
    1   -0.00001752    0.00003045   -0.00005508   -0.00001758    0.00014790
    2   -0.00003904    0.00000005   -0.00000011    0.00003916    0.00000017
    3    0.00003525    0.00003768   -0.00002596    0.00003507    0.00004811
             6             7             8             9            10
    1   -0.00012932    0.00000248   -0.00000011    0.00000244    0.00002168
    2   -0.00000003   -0.00000009    0.00003238    0.00002151    0.00000954
    3   -0.00010659   -0.00000863   -0.00001140   -0.00002595    0.00001016
            11            12            13            14            15
    1    0.00000795    0.00002149    0.00000241    0.00000252   -0.00000013
    2    0.00000007   -0.00000954   -0.00002149    0.00000003   -0.00003250
    3    0.00000251    0.00001024   -0.00002577   -0.00000867   -0.00001137
            16            17            18            19            20
    1   -0.00003331   -0.00003333    0.00003500    0.00000603    0.00000603
    2    0.00000310   -0.00000315   -0.00000005    0.00000657   -0.00000658
    3    0.00000892    0.00000892    0.00001102    0.00000817    0.00000828
 Gradient time:  CPU 0.13 s  wall 0.09 s
 Geometry Optimization Parameters
   NAtoms,    NIC,     NZ,  NCons,   NDum,   NFix, NCnnct, MaxDiis
       20     140       0       0       0       0       0       0

 Cartesian Hessian Update
 Hessian Updated using BFGS Update


** GEOMETRY OPTIMIZATION IN DELOCALIZED INTERNAL COORDINATES **
   Searching for a Minimum

   Optimization Cycle:   3

                       Coordinates (Angstroms)
     ATOM                X               Y               Z
      1  C        -0.5190463398   -1.5344086407    1.0795212370
      2  Si       -0.4188960960    0.0000056287   -0.0065139580
      3  C        -1.8515085351   -0.0010913873   -1.2263670990
      4  C        -0.5189841469    1.5364270106    1.0766852853
      5  C         1.2111938735   -0.0009108790   -0.9583407012
      6  C         2.4660696578   -0.0001099560   -0.0700773481
      7  H         0.2795998326   -1.5503657549    1.8284150417
      8  H        -1.4741460453   -1.5742219496    1.6144293042
      9  H        -0.4347406639   -2.4485785737    0.4818031034
     10  H        -1.8224371197    0.8827952787   -1.8725636070
     11  H        -2.8151586039   -0.0005430578   -0.7056663014
     12  H        -1.8225288091   -0.8862164440   -1.8708702343
     13  H        -0.4346638681    2.4494915131    0.4772821496
     14  H         0.2796750810    1.5537426215    1.8255350381
     15  H        -1.4740738724    1.5772516812    1.6115350140
     16  H         1.2273586506    0.8746683389   -1.6211027542
     17  H         1.2273220165   -0.8777241165   -1.6194705657
     18  H         3.3835741402   -0.0006980813   -0.6671038076
     19  H         2.4951685071    0.8837508521    0.5752538465
     20  H         2.4951195548   -0.8827554179    0.5769176477
   Point Group: c1    Number of degrees of freedom:    54


   Energy is   -487.402872998

 Hessian Updated using BFGS Update

 43 Hessian modes will be used to form the next step
  Hessian Eigenvalues:
     0.002000    0.002166    0.002520    0.004650    0.033162    0.042425
     0.047539    0.047654    0.047886    0.053537    0.053539    0.053760
     0.053949    0.054100    0.054149    0.054942    0.055442    0.081683
     0.124320    0.140266    0.143471    0.146067    0.159882    0.164548
     0.199524    0.200467    0.201566    0.206656    0.225256    0.312819
     0.338945    0.339000    0.341867    0.342583    0.342591    0.342650
     0.342653    0.342724    0.342739    0.342753    0.343218    0.343346
     0.351917

 Minimum Search - Taking Simple RFO Step
 Searching for Lamda that Minimizes Along All modes
 Value Taken    Lamda =   0.00000000
 Step Taken.  Stepsize is  0.008923

                             Maximum     Tolerance    Cnvgd?
         Gradient           0.000084      0.000020      NO
         Displacement       0.007737      0.000120      NO
         Energy change     -0.000002      0.000000      NO


 New Cartesian Coordinates Obtained by Inverse Iteration

 Displacement from previous Coordinates is:  0.010415
 ----------------------------------------------------------------
             Standard Nuclear Orientation (Angstroms)
    I     Atom           X                Y                Z
 ----------------------------------------------------------------
    1      C      -0.5186651300    -1.5343298618     1.0793487516
    2      Si     -0.4192161605     0.0000064904    -0.0069680352
    3      C      -1.8521225396    -0.0010939929    -1.2263696368
    4      C      -0.5186048352     1.5363554310     1.0765058860
    5      C       1.2110026619    -0.0009091899    -0.9585618658
    6      C       2.4658512234    -0.0001174063    -0.0697984171
    7      H       0.2790770720    -1.5488935867     1.8292318643
    8      H      -1.4742481159    -1.5756301229     1.6133166712
    9      H      -0.4323415491    -2.4487967238     0.4823512959
   10      H      -1.8235989748     0.8827447457    -1.8726459089
   11      H      -2.8155883048    -0.0005753960    -0.7053065799
   12      H      -1.8236537790    -0.8861452366    -1.8709867716
   13      H      -0.4322601370     2.4497135363     0.4778166767
   14      H       0.2791462465     1.5522821731     1.8263519052
   15      H      -1.4741806558     1.5786725312     1.6104070901
   16      H       1.2278492189     0.8746572008    -1.6213348954
   17      H       1.2278077891    -0.8776994766    -1.6197161477
   18      H       3.3832506351    -0.0006958746    -0.6668857125
   19      H       2.4947193652     0.8837748147     0.5754524266
   20      H       2.4946731835    -0.8828113893     0.5770926942
 ----------------------------------------------------------------
 Molecular Point Group                 C1    NOp =  1
 Largest Abelian Subgroup              C1    NOp =  1
 Nuclear Repulsion Energy =   319.9984537041 hartrees
 There are       29 alpha and       29 beta electrons
 Applying Cartesian multipole field
    Component          Value
    ---------          -----
     (2,0,0)        1.00000E-11
     (0,2,0)        2.00000E-11
     (0,0,2)       -3.00000E-11
 Nucleus-field energy     =     0.0000000023 hartrees
 Requested basis set is 6-311+G(d,p)
 There are 99 shells and 224 basis functions
 A cutoff of  1.0D-11 yielded   4520 shell pairs
 There are     23758 function pairs (     25103 Cartesian)
 Smallest overlap matrix eigenvalue = 5.81E-05
 Guess MOs from SCF MO coefficient file
 Reading MOs from coefficient file
 Reading MOs from coefficient file

 -----------------------------------------------------------------------
  General SCF calculation program by
  Eric Jon Sundstrom, Paul Horn, Yuezhi Mao, Dmitri Zuev, Alec White,
  David Stuck, Shaama M.S., Shane Yost, Joonho Lee, David Small,
  Daniel Levine, Susi Lehtola, Hugh Burton, Evgeny Epifanovsky
 -----------------------------------------------------------------------
 Hartree-Fock
 using 4 threads for integral computing
 -------------------------------------------------------
 OpenMP Integral computing Module                
 Release: version 1.0, May 2013, Q-Chem Inc. Pittsburgh 
 -------------------------------------------------------
 A restricted SCF calculation will be
 performed using DIIS
 SCF converges when DIIS error is below 1.0e-08
 ---------------------------------------
  Cycle       Energy         DIIS error
 ---------------------------------------
    1    -486.5208694248      1.54e-05  
    2    -486.5208904965      3.72e-06  
    3    -486.5208906816      1.00e-06  
    4    -486.5208906949      3.51e-07  
    5    -486.5208906963      5.44e-08  
    6    -486.5208906963      1.27e-08  
    7    -486.5208906963      3.49e-09  Convergence criterion met
 ---------------------------------------
 SCF time:   CPU 27.96s  wall 7.00s 
 SCF   energy in the final basis set =     -486.5208906963
 Total energy in the final basis set =     -486.5208906963
 
 Components of the MP2 correlation energy:
        aaaa  correlation energy =        -0.0973607905 au
        abab  correlation energy =        -0.6872610307 au
        bbbb  correlation energy =        -0.0973607905 au
        non-Brillouin singles    =        -0.0000000000 au

 Total  MP2   correlation energy =                    -0.88198261 au
        MP2         total energy =                  -487.40287331 au
  Entering Z-vector solver.
   1         0           1      0.000176    0.000176
   2         0           1      0.000044    0.000044
   3         0           1      0.000007    0.000007
   4         0           1      0.000002    0.000002
   5         1           0      0.000000    0.000000    Roots Converged
 
 --------------------------------------------------------------
 
                    Orbital Energies (a.u.)
 --------------------------------------------------------------
 
 Alpha MOs
 -- Occupied --
-68.746 -11.216 -11.199 -11.195 -11.194 -11.194  -6.094  -4.200
 -4.200  -4.200  -1.016  -0.957  -0.919  -0.919  -0.833  -0.630
 -0.600  -0.577  -0.559  -0.557  -0.546  -0.533  -0.533  -0.526
 -0.503  -0.486  -0.423  -0.423  -0.403
 -- Virtual --
  0.052   0.064   0.071   0.075   0.105   0.111   0.115   0.121
  0.123   0.141   0.146   0.152   0.154   0.158   0.159   0.174
  0.181   0.184   0.186   0.209   0.213   0.217   0.221   0.239
  0.268   0.273   0.278   0.281   0.296   0.300   0.307   0.312
  0.330   0.356   0.357   0.372   0.372   0.377   0.394   0.401
  0.421   0.423   0.480   0.483   0.487   0.491   0.497   0.534
  0.558   0.583   0.639   0.653   0.660   0.684   0.684   0.696
  0.706   0.719   0.736   0.740   0.799   0.839   0.848   0.856
  0.863   0.870   0.874   0.896   0.910   0.911   0.927   0.932
  0.936   0.950   0.956   0.983   0.992   1.010   1.065   1.093
  1.118   1.121   1.140   1.168   1.186   1.248   1.275   1.287
  1.297   1.375   1.393   1.459   1.492   1.503   1.535   1.646
  1.726   1.731   1.738   1.738   1.760   1.761   1.775   1.817
  1.834   1.835   1.841   1.851   1.857   1.866   1.885   1.896
  1.901   1.918   1.968   1.968   1.997   2.007   2.012   2.021
  2.068   2.077   2.088   2.105   2.111   2.143   2.193   2.330
  2.342   2.344   2.369   2.373   2.430   2.481   2.496   2.502
  2.506   2.542   2.558   2.578   2.634   2.654   2.747   2.783
  2.796   2.798   2.816   2.825   2.852   2.873   2.891   2.914
  2.917   2.920   2.929   2.932   2.951   2.958   2.969   2.973
  2.991   2.991   3.000   3.031   3.061   3.096   3.172   3.229
  3.298   3.358   3.484   3.586   3.717   3.728   3.766   4.137
  4.144   4.149   4.159   4.181   4.192   4.194   4.214   4.223
  4.599   6.334  12.444  12.447  12.461  25.038  25.117  25.117
 25.128  25.152 144.093
 --------------------------------------------------------------
 
          Ground-State Mulliken Net Atomic Charges

     Atom                 Charge (a.u.)
  ----------------------------------------
      1 C                    -0.807445
      2 Si                    1.144032
      3 C                    -0.757983
      4 C                    -0.807444
      5 C                    -0.429532
      6 C                    -0.596486
      7 H                     0.163966
      8 H                     0.166804
      9 H                     0.168864
     10 H                     0.165062
     11 H                     0.164384
     12 H                     0.165063
     13 H                     0.168864
     14 H                     0.163966
     15 H                     0.166804
     16 H                     0.164613
     17 H                     0.164613
     18 H                     0.143989
     19 H                     0.143934
     20 H                     0.143934
  ----------------------------------------
  Sum of atomic charges =     0.000000

 -----------------------------------------------------------------
                    Cartesian Multipole Moments
 -----------------------------------------------------------------
    Charge (ESU x 10^10)
                 0.0000
    Dipole Moment (Debye)
         X       0.0261      Y      -0.0001      Z      -0.0828
       Tot       0.0868
    Quadrupole Moments (Debye-Ang)
        XX     -50.5329     XY      -0.0005     YY     -50.3574
        XZ      -0.5245     YZ      -0.0002     ZZ     -50.5468
    Octopole Moments (Debye-Ang^2)
       XXX      -1.3830    XXY       0.0035    XYY       1.4208
       YYY      -0.0168    XXZ       3.8376    XYZ       0.0003
       YYZ      -5.8452    XZZ       1.9364    YZZ       0.0109
       ZZZ       0.2919
    Hexadecapole Moments (Debye-Ang^3)
      XXXX    -677.1601   XXXY      -0.0133   XXYY    -170.5053
      XYYY       0.0143   YYYY    -351.5123   XXXZ     -18.5160
      XXYZ      -0.0001   XYYZ       3.7630   YYYZ      -0.0021
      XXZZ    -171.2435   XYZZ      -0.0072   YYZZ    -117.8143
      XZZZ      -1.6233   YZZZ       0.0022   ZZZZ    -350.9930
 -----------------------------------------------------------------
 DrvMan is completing analytic gradient of the MP2 energy
 MP2 relaxed dipole moment
            1
    1   0.0102556
    2  -0.0000298
    3  -0.0325939
	Magnitude:	 0.034 au	 0.087 Debye
 MP2 energy read as -487.402873
 Full Analytical Gradient of MP2 Energy (in au.)
             1             2             3             4             5
    1    0.00001525   -0.00001649    0.00000019    0.00001522    0.00000957
    2   -0.00000151    0.00000002   -0.00000004    0.00000157    0.00000003
    3    0.00001488   -0.00000214    0.00000132    0.00001481    0.00001575
             6             7             8             9            10
    1    0.00001604   -0.00001185    0.00000063   -0.00000339   -0.00000069
    2   -0.00000003   -0.00001194    0.00000184    0.00000022   -0.00000263
    3   -0.00002646   -0.00000396   -0.00000172   -0.00000037    0.00000214
            11            12            13            14            15
    1    0.00000225   -0.00000075   -0.00000341   -0.00001182    0.00000061
    2    0.00000001    0.00000263   -0.00000019    0.00001192   -0.00000189
    3   -0.00000964    0.00000215   -0.00000031   -0.00000399   -0.00000173
            16            17            18            19            20
    1    0.00000080    0.00000076   -0.00000369   -0.00000461   -0.00000460
    2    0.00000299   -0.00000300   -0.00000002    0.00000144   -0.00000142
    3    0.00000122    0.00000118    0.00000504   -0.00000410   -0.00000407
 Gradient time:  CPU 0.13 s  wall 0.09 s
 Geometry Optimization Parameters
   NAtoms,    NIC,     NZ,  NCons,   NDum,   NFix, NCnnct, MaxDiis
       20     140       0       0       0       0       0       0

 Cartesian Hessian Update
 Hessian Updated using BFGS Update


** GEOMETRY OPTIMIZATION IN DELOCALIZED INTERNAL COORDINATES **
   Searching for a Minimum

   Optimization Cycle:   4

                       Coordinates (Angstroms)
     ATOM                X               Y               Z
      1  C        -0.5186651300   -1.5343298618    1.0793487516
      2  Si       -0.4192161605    0.0000064904   -0.0069680352
      3  C        -1.8521225396   -0.0010939929   -1.2263696368
      4  C        -0.5186048352    1.5363554310    1.0765058860
      5  C         1.2110026619   -0.0009091899   -0.9585618658
      6  C         2.4658512234   -0.0001174063   -0.0697984171
      7  H         0.2790770720   -1.5488935867    1.8292318643
      8  H        -1.4742481159   -1.5756301229    1.6133166712
      9  H        -0.4323415491   -2.4487967238    0.4823512959
     10  H        -1.8235989748    0.8827447457   -1.8726459089
     11  H        -2.8155883048   -0.0005753960   -0.7053065799
     12  H        -1.8236537790   -0.8861452366   -1.8709867716
     13  H        -0.4322601370    2.4497135363    0.4778166767
     14  H         0.2791462465    1.5522821731    1.8263519052
     15  H        -1.4741806558    1.5786725312    1.6104070901
     16  H         1.2278492189    0.8746572008   -1.6213348954
     17  H         1.2278077891   -0.8776994766   -1.6197161477
     18  H         3.3832506351   -0.0006958746   -0.6668857125
     19  H         2.4947193652    0.8837748147    0.5754524266
     20  H         2.4946731835   -0.8828113893    0.5770926942
   Point Group: c1    Number of degrees of freedom:    54


   Energy is   -487.402873308

 Hessian Updated using BFGS Update

 45 Hessian modes will be used to form the next step
  Hessian Eigenvalues:
     0.001905    0.002000    0.002435    0.002520    0.004650    0.033162
     0.037496    0.047647    0.047654    0.048057    0.053495    0.053537
     0.053600    0.053949    0.054072    0.054149    0.054942    0.055445
     0.083118    0.124320    0.136891    0.143471    0.147070    0.159911
     0.162952    0.165591    0.199576    0.200533    0.201566    0.207787
     0.233178    0.309902    0.338945    0.339151    0.342144    0.342591
     0.342600    0.342650    0.342678    0.342739    0.342746    0.342919
     0.343346    0.343513    0.350559

 Minimum Search - Taking Simple RFO Step
 Searching for Lamda that Minimizes Along All modes
 Value Taken    Lamda =   0.00000000
 Step Taken.  Stepsize is  0.003296

                             Maximum     Tolerance    Cnvgd?
         Gradient           0.000050      0.000020      NO
         Displacement       0.002880      0.000120      NO
         Energy change     -0.000000      0.000000      NO


 New Cartesian Coordinates Obtained by Inverse Iteration

 Displacement from previous Coordinates is:  0.004462
 ----------------------------------------------------------------
             Standard Nuclear Orientation (Angstroms)
    I     Atom           X                Y                Z
 ----------------------------------------------------------------
    1      C      -0.5184551361    -1.5342449602     1.0791990522
    2      Si     -0.4192940977     0.0000060081    -0.0072146442
    3      C      -1.8524044734    -0.0010944747    -1.2263431073
    4      C      -0.5183933399     1.5362714380     1.0763541553
    5      C       1.2109375077    -0.0009097962    -0.9587020373
    6      C       2.4655856824    -0.0001178976    -0.0695751202
    7      H       0.2790576467    -1.5481536586     1.8293624139
    8      H      -1.4741825246    -1.5760497508     1.6128793091
    9      H      -0.4313510900    -2.4487930491     0.4824351375
   10      H      -1.8240863148     0.8827506835    -1.8726267720
   11      H      -2.8157318015    -0.0005868600    -0.7049990693
   12      H      -1.8241278984    -0.8861417205    -1.8709814049
   13      H      -0.4312624982     2.4497092602     0.4778961631
   14      H       0.2791257053     1.5515425377     1.8264843945
   15      H      -1.4741151983     1.5790977372     1.6099633529
   16      H       1.2279901304     0.8746565901    -1.6214650387
   17      H       1.2279491659    -0.8776993360    -1.6198471237
   18      H       3.3830897450    -0.0006915371    -0.6665082422
   19      H       2.4943039884     0.8837725298     0.5756783389
   20      H       2.4942620149    -0.8828150782     0.5773115331
 ----------------------------------------------------------------
 Molecular Point Group                 C1    NOp =  1
 Largest Abelian Subgroup              C1    NOp =  1
 Nuclear Repulsion Energy =   320.0050389939 hartrees
 There are       29 alpha and       29 beta electrons
 Applying Cartesian multipole field
    Component          Value
    ---------          -----
     (2,0,0)        1.00000E-11
     (0,2,0)        2.00000E-11
     (0,0,2)       -3.00000E-11
 Nucleus-field energy     =     0.0000000023 hartrees
 Requested basis set is 6-311+G(d,p)
 There are 99 shells and 224 basis functions
 A cutoff of  1.0D-11 yielded   4520 shell pairs
 There are     23758 function pairs (     25103 Cartesian)
 Smallest overlap matrix eigenvalue = 5.81E-05
 Guess MOs from SCF MO coefficient file
 Reading MOs from coefficient file
 Reading MOs from coefficient file

 -----------------------------------------------------------------------
  General SCF calculation program by
  Eric Jon Sundstrom, Paul Horn, Yuezhi Mao, Dmitri Zuev, Alec White,
  David Stuck, Shaama M.S., Shane Yost, Joonho Lee, David Small,
  Daniel Levine, Susi Lehtola, Hugh Burton, Evgeny Epifanovsky
 -----------------------------------------------------------------------
 Hartree-Fock
 using 4 threads for integral computing
 -------------------------------------------------------
 OpenMP Integral computing Module                
 Release: version 1.0, May 2013, Q-Chem Inc. Pittsburgh 
 -------------------------------------------------------
 A restricted SCF calculation will be
 performed using DIIS
 SCF converges when DIIS error is below 1.0e-08
 ---------------------------------------
  Cycle       Energy         DIIS error
 ---------------------------------------
    1    -486.5208917132      6.25e-06  
    2    -486.5208871390      1.45e-06  
    3    -486.5208871670      3.76e-07  
    4    -486.5208871690      1.21e-07  
    5    -486.5208871692      2.29e-08  
    6    -486.5208871692      5.25e-09  Convergence criterion met
 ---------------------------------------
 SCF time:   CPU 24.05s  wall 6.00s 
 SCF   energy in the final basis set =     -486.5208871692
 Total energy in the final basis set =     -486.5208871692
 
 Components of the MP2 correlation energy:
        aaaa  correlation energy =        -0.0973615073 au
        abab  correlation energy =        -0.6872631575 au
        bbbb  correlation energy =        -0.0973615073 au
        non-Brillouin singles    =        -0.0000000000 au

 Total  MP2   correlation energy =                    -0.88198617 au
        MP2         total energy =                  -487.40287334 au
  Entering Z-vector solver.
   1         0           1      0.000176    0.000176
   2         0           1      0.000044    0.000044
   3         0           1      0.000007    0.000007
   4         0           1      0.000002    0.000002
   5         1           0      0.000000    0.000000    Roots Converged
 
 --------------------------------------------------------------
 
                    Orbital Energies (a.u.)
 --------------------------------------------------------------
 
 Alpha MOs
 -- Occupied --
-68.746 -11.216 -11.199 -11.195 -11.194 -11.194  -6.094  -4.200
 -4.200  -4.200  -1.016  -0.957  -0.919  -0.919  -0.833  -0.630
 -0.600  -0.577  -0.559  -0.557  -0.546  -0.533  -0.533  -0.526
 -0.503  -0.486  -0.423  -0.423  -0.403
 -- Virtual --
  0.052   0.064   0.071   0.075   0.105   0.111   0.115   0.121
  0.123   0.141   0.146   0.152   0.154   0.158   0.159   0.174
  0.181   0.184   0.186   0.209   0.213   0.217   0.221   0.239
  0.268   0.273   0.278   0.281   0.296   0.300   0.307   0.312
  0.330   0.356   0.357   0.372   0.372   0.377   0.394   0.401
  0.421   0.423   0.480   0.483   0.487   0.491   0.497   0.534
  0.558   0.583   0.639   0.653   0.660   0.684   0.684   0.696
  0.706   0.719   0.736   0.740   0.799   0.839   0.848   0.856
  0.863   0.870   0.874   0.896   0.910   0.911   0.927   0.932
  0.936   0.950   0.956   0.983   0.992   1.010   1.065   1.093
  1.118   1.121   1.140   1.168   1.186   1.248   1.275   1.287
  1.297   1.375   1.393   1.459   1.492   1.503   1.535   1.646
  1.726   1.731   1.738   1.738   1.760   1.761   1.775   1.817
  1.834   1.835   1.841   1.851   1.857   1.866   1.885   1.896
  1.901   1.918   1.968   1.968   1.997   2.007   2.012   2.021
  2.068   2.077   2.088   2.105   2.111   2.143   2.193   2.330
  2.342   2.344   2.369   2.373   2.429   2.481   2.496   2.502
  2.506   2.542   2.558   2.578   2.634   2.654   2.747   2.783
  2.796   2.798   2.816   2.825   2.852   2.873   2.891   2.914
  2.917   2.920   2.929   2.932   2.951   2.958   2.969   2.973
  2.991   2.991   3.000   3.031   3.061   3.096   3.172   3.229
  3.298   3.358   3.484   3.586   3.717   3.728   3.766   4.137
  4.144   4.149   4.159   4.181   4.192   4.194   4.214   4.223
  4.599   6.334  12.444  12.447  12.461  25.038  25.117  25.117
 25.128  25.152 144.093
 --------------------------------------------------------------
 
          Ground-State Mulliken Net Atomic Charges

     Atom                 Charge (a.u.)
  ----------------------------------------
      1 C                    -0.807483
      2 Si                    1.144175
      3 C                    -0.758003
      4 C                    -0.807483
      5 C                    -0.429734
      6 C                    -0.596412
      7 H                     0.163954
      8 H                     0.166812
      9 H                     0.168876
     10 H                     0.165068
     11 H                     0.164377
     12 H                     0.165068
     13 H                     0.168876
     14 H                     0.163954
     15 H                     0.166812
     16 H                     0.164625
     17 H                     0.164625
     18 H                     0.143995
     19 H                     0.143948
     20 H                     0.143948
  ----------------------------------------
  Sum of atomic charges =     0.000000

 -----------------------------------------------------------------
                    Cartesian Multipole Moments
 -----------------------------------------------------------------
    Charge (ESU x 10^10)
                 0.0000
    Dipole Moment (Debye)
         X       0.0260      Y      -0.0001      Z      -0.0832
       Tot       0.0871
    Quadrupole Moments (Debye-Ang)
        XX     -50.5327     XY      -0.0005     YY     -50.3573
        XZ      -0.5247     YZ      -0.0002     ZZ     -50.5465
    Octopole Moments (Debye-Ang^2)
       XXX      -1.3780    XXY       0.0035    XYY       1.4212
       YYY      -0.0168    XXZ       3.8405    XYZ       0.0003
       YYZ      -5.8420    XZZ       1.9373    YZZ       0.0109
       ZZZ       0.2996
    Hexadecapole Moments (Debye-Ang^3)
      XXXX    -677.1314   XXXY      -0.0133   XXYY    -170.4920
      XYYY       0.0142   YYYY    -351.4798   XXXZ     -18.5568
      XXYZ      -0.0001   XYYZ       3.7425   YYYZ      -0.0021
      XXZZ    -171.2340   XYZZ      -0.0072   YYZZ    -117.8078
      XZZZ      -1.6550   YZZZ       0.0023   ZZZZ    -350.9676
 -----------------------------------------------------------------
 DrvMan is completing analytic gradient of the MP2 energy
 MP2 relaxed dipole moment
            1
    1   0.0102413
    2  -0.0000302
    3  -0.0327152
	Magnitude:	 0.034 au	 0.087 Debye
 MP2 energy read as -487.402873
 Full Analytical Gradient of MP2 Energy (in au.)
             1             2             3             4             5
    1    0.00001096   -0.00000714    0.00001071    0.00001095   -0.00001473
    2    0.00001116    0.00000001   -0.00000000   -0.00001114   -0.00000001
    3   -0.00000138   -0.00000276    0.00000798   -0.00000139    0.00000652
             6             7             8             9            10
    1    0.00002208   -0.00000428   -0.00000212   -0.00000222   -0.00000239
    2   -0.00000002   -0.00000637   -0.00000254   -0.00000284   -0.00000072
    3    0.00000079    0.00000056    0.00000147    0.00000124   -0.00000074
            11            12            13            14            15
    1   -0.00000284   -0.00000240   -0.00000223   -0.00000426   -0.00000213
    2    0.00000000    0.00000072    0.00000285    0.00000637    0.00000252
    3   -0.00000489   -0.00000074    0.00000126    0.00000054    0.00000147
            16            17            18            19            20
    1    0.00000355    0.00000352   -0.00000610   -0.00000447   -0.00000446
    2    0.00000161   -0.00000160   -0.00000001   -0.00000015    0.00000017
    3   -0.00000037   -0.00000038   -0.00000327   -0.00000297   -0.00000296
 Gradient time:  CPU 0.16 s  wall 0.12 s
 Geometry Optimization Parameters
   NAtoms,    NIC,     NZ,  NCons,   NDum,   NFix, NCnnct, MaxDiis
       20     140       0       0       0       0       0       0

 Cartesian Hessian Update
 Hessian Updated using BFGS Update


** GEOMETRY OPTIMIZATION IN DELOCALIZED INTERNAL COORDINATES **
   Searching for a Minimum

   Optimization Cycle:   5

                       Coordinates (Angstroms)
     ATOM                X               Y               Z
      1  C        -0.5184551361   -1.5342449602    1.0791990522
      2  Si       -0.4192940977    0.0000060081   -0.0072146442
      3  C        -1.8524044734   -0.0010944747   -1.2263431073
      4  C        -0.5183933399    1.5362714380    1.0763541553
      5  C         1.2109375077   -0.0009097962   -0.9587020373
      6  C         2.4655856824   -0.0001178976   -0.0695751202
      7  H         0.2790576467   -1.5481536586    1.8293624139
      8  H        -1.4741825246   -1.5760497508    1.6128793091
      9  H        -0.4313510900   -2.4487930491    0.4824351375
     10  H        -1.8240863148    0.8827506835   -1.8726267720
     11  H        -2.8157318015   -0.0005868600   -0.7049990693
     12  H        -1.8241278984   -0.8861417205   -1.8709814049
     13  H        -0.4312624982    2.4497092602    0.4778961631
     14  H         0.2791257053    1.5515425377    1.8264843945
     15  H        -1.4741151983    1.5790977372    1.6099633529
     16  H         1.2279901304    0.8746565901   -1.6214650387
     17  H         1.2279491659   -0.8776993360   -1.6198471237
     18  H         3.3830897450   -0.0006915371   -0.6665082422
     19  H         2.4943039884    0.8837725298    0.5756783389
     20  H         2.4942620149   -0.8828150782    0.5773115331
   Point Group: c1    Number of degrees of freedom:    54


   Energy is   -487.402873341

 Hessian Updated using BFGS Update

 46 Hessian modes will be used to form the next step
  Hessian Eigenvalues:
     0.001781    0.002000    0.002435    0.002520    0.004650    0.033162
     0.033826    0.047614    0.047654    0.047862    0.052695    0.053537
     0.053600    0.053946    0.053949    0.054149    0.054942    0.055473
     0.084662    0.124320    0.133440    0.143471    0.148441    0.156038
     0.160024    0.161278    0.163247    0.199402    0.200601    0.201566
     0.205952    0.218826    0.311391    0.338945    0.339002    0.341957
     0.342611    0.342650    0.342713    0.342739    0.342742    0.342968
     0.343048    0.343346    0.343680    0.350053

 Minimum Search - Taking Simple RFO Step
 Searching for Lamda that Minimizes Along All modes
 Value Taken    Lamda =   0.00000000
 Step Taken.  Stepsize is  0.001180

                             Maximum     Tolerance    Cnvgd?
         Gradient           0.000021      0.000020      NO
         Displacement       0.001007      0.000120      NO
         Energy change     -0.000000      0.000000     YES


 New Cartesian Coordinates Obtained by Inverse Iteration

 Displacement from previous Coordinates is:  0.001890
 ----------------------------------------------------------------
             Standard Nuclear Orientation (Angstroms)
    I     Atom           X                Y                Z
 ----------------------------------------------------------------
    1      C      -0.5183682226    -1.5342202212     1.0791225982
    2      Si     -0.4193158274     0.0000055337    -0.0073350332
    3      C      -1.8525467204    -0.0010945654    -1.2263344678
    4      C      -0.5183053413     1.5362462892     1.0762772545
    5      C       1.2109379319    -0.0009102748    -0.9587856134
    6      C       2.4654515452    -0.0001171533    -0.0694644207
    7      H       0.2790991083    -1.5478491210     1.8293485436
    8      H      -1.4741268783    -1.5761774140     1.6127246883
    9      H      -0.4309795413    -2.4487861394     0.4824327809
   10      H      -1.8243112148     0.8827594386    -1.8726093290
   11      H      -2.8157826667    -0.0005904680    -0.7048192493
   12      H      -1.8243486725    -0.8861469924    -1.8709687959
   13      H      -0.4308852750     2.4497013411     0.4778928416
   14      H       0.2791660087     1.5512358714     1.8264729811
   15      H      -1.4740599122     1.5792282430     1.6098051101
   16      H       1.2280411824     0.8746560938    -1.6215415941
   17      H       1.2280012974    -0.8777006429    -1.6199224752
   18      H       3.3830684111    -0.0006892872    -0.6662351651
   19      H       2.4941010386     0.8837663077     0.5758043355
   20      H       2.4940609630    -0.8828081728     0.5774363007
 ----------------------------------------------------------------
 Molecular Point Group                 C1    NOp =  1
 Largest Abelian Subgroup              C1    NOp =  1
 Nuclear Repulsion Energy =   320.0075044502 hartrees
 There are       29 alpha and       29 beta electrons
 Applying Cartesian multipole field
    Component          Value
    ---------          -----
     (2,0,0)        1.00000E-11
     (0,2,0)        2.00000E-11
     (0,0,2)       -3.00000E-11
 Nucleus-field energy     =     0.0000000023 hartrees
 Requested basis set is 6-311+G(d,p)
 There are 99 shells and 224 basis functions
 A cutoff of  1.0D-11 yielded   4520 shell pairs
 There are     23758 function pairs (     25103 Cartesian)
 Smallest overlap matrix eigenvalue = 5.81E-05
 Guess MOs from SCF MO coefficient file
 Reading MOs from coefficient file
 Reading MOs from coefficient file

 -----------------------------------------------------------------------
  General SCF calculation program by
  Eric Jon Sundstrom, Paul Horn, Yuezhi Mao, Dmitri Zuev, Alec White,
  David Stuck, Shaama M.S., Shane Yost, Joonho Lee, David Small,
  Daniel Levine, Susi Lehtola, Hugh Burton, Evgeny Epifanovsky
 -----------------------------------------------------------------------
 Hartree-Fock
 using 4 threads for integral computing
 -------------------------------------------------------
 OpenMP Integral computing Module                
 Release: version 1.0, May 2013, Q-Chem Inc. Pittsburgh 
 -------------------------------------------------------
 A restricted SCF calculation will be
 performed using DIIS
 SCF converges when DIIS error is below 1.0e-08
 ---------------------------------------
  Cycle       Energy         DIIS error
 ---------------------------------------
    1    -486.5208989685      2.68e-06  
    2    -486.5208857566      5.74e-07  
    3    -486.5208857609      1.53e-07  
    4    -486.5208857612      4.73e-08  
    5    -486.5208857612      9.94e-09  Convergence criterion met
 ---------------------------------------
 SCF time:   CPU 20.01s  wall 5.00s 
 SCF   energy in the final basis set =     -486.5208857612
 Total energy in the final basis set =     -486.5208857612
 
 Components of the MP2 correlation energy:
        aaaa  correlation energy =        -0.0973618480 au
        abab  correlation energy =        -0.6872638836 au
        bbbb  correlation energy =        -0.0973618480 au
        non-Brillouin singles    =        -0.0000000000 au

 Total  MP2   correlation energy =                    -0.88198758 au
        MP2         total energy =                  -487.40287334 au
  Entering Z-vector solver.
   1         0           1      0.000176    0.000176
   2         0           1      0.000044    0.000044
   3         0           1      0.000007    0.000007
   4         0           1      0.000002    0.000002
   5         1           0      0.000000    0.000000    Roots Converged
 
 --------------------------------------------------------------
 
                    Orbital Energies (a.u.)
 --------------------------------------------------------------
 
 Alpha MOs
 -- Occupied --
-68.746 -11.216 -11.199 -11.195 -11.194 -11.194  -6.094  -4.200
 -4.200  -4.200  -1.016  -0.957  -0.919  -0.919  -0.833  -0.630
 -0.600  -0.577  -0.559  -0.557  -0.546  -0.533  -0.533  -0.526
 -0.503  -0.486  -0.423  -0.423  -0.403
 -- Virtual --
  0.052   0.064   0.071   0.075   0.105   0.111   0.115   0.121
  0.123   0.141   0.146   0.152   0.154   0.158   0.159   0.174
[...]
 C         -0.106 -0.000 -0.076    0.025 -0.000  0.007    0.000  0.000  0.000
 H          0.031 -0.028 -0.032    0.024  0.077 -0.012    0.028  0.268  0.013
 H         -0.024 -0.020 -0.040   -0.034 -0.093 -0.076   -0.081 -0.326 -0.208
 H         -0.000 -0.018  0.034   -0.138 -0.011  0.003   -0.480 -0.036  0.000
 H          0.004 -0.003 -0.003    0.048 -0.086 -0.109   -0.125  0.017  0.036
 H         -0.003  0.000 -0.003    0.034 -0.000  0.080   -0.000  0.201 -0.001
 H          0.004  0.003 -0.003    0.047  0.086 -0.109    0.125  0.015 -0.034
 H          0.000  0.018  0.034   -0.137  0.011  0.003    0.481 -0.036  0.001
 H          0.031  0.028 -0.032    0.025 -0.076 -0.013   -0.027  0.268 -0.014
 H         -0.024  0.020 -0.040   -0.034  0.093 -0.077    0.081 -0.326  0.207
 H         -0.005  0.081  0.107    0.059  0.405  0.497    0.002 -0.000 -0.001
 H         -0.005 -0.081  0.107    0.059 -0.404  0.497   -0.002  0.000  0.001
 H          0.278  0.000  0.470   -0.006  0.000 -0.040   -0.000 -0.007 -0.000
 H          0.486 -0.201  0.202   -0.086  0.057 -0.069   -0.006  0.000  0.001
 H          0.486  0.201  0.202   -0.086 -0.057 -0.069    0.005  0.000 -0.001
 TransDip   0.002 -0.000  0.033   -0.039 -0.000  0.038    0.000  0.000 -0.000

 Mode:                34                     35                     36
 Frequency:      1463.86                1465.04                1476.72
 Force Cnst:      1.3281                 1.3326                 1.3462
 Red. Mass:       1.0519                 1.0538                 1.0477
 IR Active:          YES                    YES                    YES
 IR Intens:        0.045                  0.296                  4.606
 Raman Active:       YES                    YES                    YES
               X      Y      Z        X      Y      Z        X      Y      Z
 C         -0.019  0.019  0.025   -0.017  0.012  0.015    0.001 -0.014 -0.023
 Si        -0.000  0.000 -0.000   -0.000 -0.000 -0.001   -0.000 -0.008 -0.000
 C          0.000 -0.036 -0.000    0.032  0.000 -0.039    0.000 -0.045  0.000
 C          0.019  0.019 -0.025   -0.017 -0.012  0.015   -0.001 -0.014  0.023
 C         -0.000 -0.000 -0.000   -0.003 -0.000 -0.015    0.000  0.000 -0.000
 C          0.000  0.003  0.000    0.011 -0.000  0.003    0.000  0.001 -0.000
 H          0.252 -0.201 -0.272    0.168 -0.155 -0.186   -0.201  0.044  0.202
 H         -0.157  0.032 -0.238   -0.100  0.050 -0.144    0.148  0.085  0.252
 H          0.173 -0.080  0.186    0.159 -0.051  0.123    0.042  0.074 -0.138
 H         -0.266  0.033  0.068   -0.159  0.307  0.387   -0.361  0.042  0.086
 H         -0.000  0.422 -0.001   -0.107 -0.001 -0.260    0.000  0.558 -0.000
 H          0.265  0.032 -0.067   -0.161 -0.307  0.388    0.361  0.042 -0.086
 H         -0.173 -0.080 -0.185    0.158  0.052  0.124   -0.040  0.074  0.137
 H         -0.252 -0.201  0.272    0.169  0.154 -0.188    0.200  0.045 -0.201
 H          0.157  0.032  0.238   -0.101 -0.049 -0.146   -0.147  0.083 -0.250
 H         -0.008 -0.001 -0.001    0.010  0.091  0.114    0.030 -0.000  0.003
 H          0.008 -0.001  0.002    0.010 -0.091  0.114   -0.030 -0.001 -0.002
 H         -0.000 -0.044 -0.000   -0.015  0.000 -0.034   -0.000  0.027 -0.000
 H         -0.028 -0.003  0.008   -0.046  0.015 -0.017    0.025  0.001  0.000
 H          0.027 -0.004 -0.008   -0.046 -0.015 -0.017   -0.025  0.001 -0.000
 TransDip   0.000  0.007  0.000   -0.007 -0.000  0.016    0.000  0.069  0.000

 Mode:                37                     38                     39
 Frequency:      1478.03                1482.83                1516.30
 Force Cnst:      1.3517                 1.3552                 1.4154
 Red. Mass:       1.0502                 1.0461                 1.0449
 IR Active:          YES                    YES                    YES
 IR Intens:        8.073                  9.512                  3.872
 Raman Active:       YES                    YES                    YES
               X      Y      Z        X      Y      Z        X      Y      Z
 C         -0.024 -0.017 -0.025   -0.026  0.013  0.014    0.003  0.001  0.002
 Si        -0.005  0.000 -0.006   -0.008  0.000  0.006   -0.001  0.000  0.002
 C          0.004  0.000 -0.002   -0.020  0.000  0.025   -0.001 -0.000  0.000
 C         -0.024  0.017 -0.026   -0.026 -0.013  0.014    0.003 -0.001  0.002
 C         -0.001 -0.000 -0.023    0.003 -0.000  0.002    0.018 -0.000 -0.016
 C          0.004 -0.000 -0.007    0.005  0.000  0.005    0.032  0.000 -0.042
 H         -0.176 -0.142  0.152    0.203 -0.258 -0.233    0.018  0.025 -0.015
 H          0.167  0.296  0.333   -0.109  0.137 -0.142   -0.017 -0.029 -0.035
 H          0.356  0.090 -0.120    0.297 -0.063  0.165   -0.042 -0.007  0.008
 H         -0.015  0.017  0.021    0.109 -0.222 -0.282    0.004 -0.005 -0.007
 H         -0.008 -0.002 -0.021    0.084  0.000  0.197    0.005  0.000  0.009
 H         -0.017 -0.017  0.022    0.109  0.222 -0.282    0.005  0.005 -0.007
 H          0.356 -0.090 -0.121    0.297  0.063  0.165   -0.042  0.007  0.008
 H         -0.178  0.141  0.153    0.203  0.258 -0.233    0.018 -0.025 -0.015
 H          0.168 -0.296  0.335   -0.109 -0.138 -0.141   -0.017  0.029 -0.035
 H          0.003  0.130  0.158   -0.009 -0.017 -0.023   -0.036  0.020  0.010
 H          0.004 -0.130  0.159   -0.009  0.017 -0.023   -0.036 -0.020  0.010
 H         -0.007 -0.000 -0.022   -0.021  0.000 -0.032   -0.203 -0.000 -0.353
 H         -0.007 -0.037  0.046   -0.026  0.010 -0.009   -0.146 -0.375  0.497
 H         -0.007  0.037  0.046   -0.026 -0.010 -0.009   -0.146  0.375  0.496
 TransDip   0.026 -0.000  0.087    0.073  0.000 -0.066   -0.050 -0.000  0.039

 Mode:                40                     41                     42
 Frequency:      1525.06                3055.73                3061.46
 Force Cnst:      1.4230                 5.8299                 5.7200
 Red. Mass:       1.0384                 1.0597                 1.0358
 IR Active:          YES                    YES                    YES
 IR Intens:        6.384                 16.593                 11.406
 Raman Active:       YES                    YES                    YES
               X      Y      Z        X      Y      Z        X      Y      Z
 C         -0.001  0.001  0.003    0.000  0.001  0.000    0.001  0.008 -0.005
 Si         0.000 -0.001  0.000   -0.001 -0.000 -0.000    0.001 -0.000  0.001
 C         -0.000  0.000 -0.000    0.004 -0.000  0.003   -0.037 -0.000 -0.031
 C          0.001  0.001 -0.003    0.000 -0.001  0.000    0.001 -0.008 -0.005
 C          0.000 -0.017  0.000    0.002 -0.000 -0.068    0.000 -0.000 -0.006
 C          0.000 -0.050  0.000   -0.003  0.000  0.005   -0.001 -0.000  0.000
 H          0.028 -0.005 -0.028    0.003 -0.000  0.003    0.071  0.002  0.063
 H         -0.017 -0.002 -0.028   -0.003  0.001  0.002   -0.092 -0.001  0.050
 H          0.005 -0.004  0.011    0.001 -0.007 -0.005    0.009 -0.088 -0.061
 H         -0.003 -0.000 -0.001    0.003  0.046 -0.033   -0.027 -0.452  0.319
 H          0.000  0.002  0.000   -0.043  0.000  0.027    0.482 -0.000 -0.283
 H          0.003 -0.000  0.000    0.003 -0.046 -0.032   -0.027  0.453  0.319
 H         -0.005 -0.004 -0.011    0.001  0.007 -0.005    0.009  0.088 -0.061
 H         -0.028 -0.005  0.028    0.003  0.000  0.003    0.070 -0.002  0.063
 H          0.017 -0.002  0.028   -0.004 -0.001  0.002   -0.091  0.001  0.050
 H          0.044 -0.001  0.024   -0.011 -0.570  0.406   -0.001 -0.049  0.035
 H         -0.044 -0.001 -0.024   -0.011  0.571  0.406   -0.001  0.049  0.035
 H         -0.000  0.699 -0.000    0.054 -0.000 -0.037    0.010 -0.000 -0.007
 H          0.480  0.052 -0.127   -0.003 -0.019 -0.014   -0.000  0.002  0.002
 H         -0.480  0.052  0.128   -0.003  0.019 -0.013   -0.000 -0.002  0.002
 TransDip   0.000  0.081  0.000   -0.029 -0.000 -0.127   -0.069 -0.000 -0.083

 Mode:                43                     44                     45
 Frequency:      3061.63                3061.77                3065.23
 Force Cnst:      5.7201                 5.7198                 5.7306
 Red. Mass:       1.0357                 1.0356                 1.0352
 IR Active:          YES                    YES                    YES
 IR Intens:        9.648                  5.083                 31.893
 Raman Active:       YES                    YES                    YES
               X      Y      Z        X      Y      Z        X      Y      Z
 C         -0.003 -0.030  0.020   -0.003 -0.028  0.018    0.001  0.007 -0.003
 Si         0.000  0.001 -0.000    0.000 -0.000 -0.001    0.000 -0.000 -0.000
 C         -0.000  0.000 -0.000   -0.009 -0.000 -0.008    0.002 -0.000  0.002
 C          0.003 -0.029 -0.019   -0.003  0.028  0.019    0.001 -0.007 -0.003
 C          0.000  0.000 -0.000    0.000  0.000 -0.002    0.001  0.000  0.002
 C         -0.000  0.001 -0.000   -0.009 -0.000 -0.006   -0.040 -0.000 -0.027
 H         -0.295 -0.006 -0.266   -0.275 -0.005 -0.248    0.055  0.001  0.049
 H          0.365  0.005 -0.199    0.336  0.005 -0.183   -0.079 -0.002  0.044
 H         -0.034  0.342  0.239   -0.031  0.321  0.222    0.008 -0.078 -0.054
 H          0.000 -0.004  0.003   -0.006 -0.113  0.080    0.002  0.031 -0.022
 H          0.001  0.000 -0.001    0.118 -0.000 -0.069   -0.031  0.000  0.017
 H         -0.000 -0.002 -0.002   -0.006  0.113  0.080    0.002 -0.031 -0.022
 H          0.033  0.337 -0.236   -0.032 -0.326  0.227    0.008  0.078 -0.054
 H          0.291 -0.006  0.262   -0.280  0.005 -0.252    0.055 -0.001  0.049
 H         -0.360  0.005  0.196    0.342 -0.005 -0.186   -0.078  0.002  0.044
 H         -0.001 -0.003  0.003   -0.001 -0.019  0.014   -0.000  0.010 -0.009
 H          0.001 -0.003 -0.003   -0.001  0.019  0.014   -0.000 -0.010 -0.009
 H          0.001  0.001 -0.001    0.104 -0.000 -0.074    0.467 -0.000 -0.329
 H         -0.000 -0.006 -0.004    0.000  0.105  0.074    0.002  0.454  0.323
 H          0.000 -0.008  0.006    0.000 -0.105  0.074    0.002 -0.454  0.324
 TransDip  -0.001 -0.099  0.000   -0.067  0.001  0.026   -0.160 -0.000 -0.085

 Mode:                46                     47                     48
 Frequency:      3105.11                3145.47                3150.77
 Force Cnst:      6.2524                 6.4259                 6.4443
 Red. Mass:       1.1006                 1.1023                 1.1018
 IR Active:          YES                    YES                    YES
 IR Intens:        8.720                 31.163                 25.167
 Raman Active:       YES                    YES                    YES
               X      Y      Z        X      Y      Z        X      Y      Z
 C          0.000  0.001  0.001   -0.006 -0.003 -0.005   -0.029 -0.001 -0.004
 Si         0.000 -0.001  0.000    0.000 -0.000 -0.000   -0.000 -0.000 -0.000
 C          0.000  0.002 -0.000    0.002 -0.000 -0.002   -0.000  0.005  0.000
 C         -0.000  0.001 -0.001   -0.006  0.003 -0.005    0.029 -0.001  0.004
 C          0.000 -0.090  0.000   -0.000  0.000  0.005   -0.000 -0.018  0.000
 C         -0.000  0.020 -0.000   -0.052  0.000  0.075   -0.000 -0.080  0.000
 H         -0.008  0.000 -0.007    0.054 -0.001  0.050    0.165 -0.003  0.158
 H          0.002  0.000 -0.000    0.026  0.000 -0.017    0.190  0.008 -0.112
 H          0.001 -0.006 -0.005   -0.005  0.038  0.024   -0.007  0.010  0.005
 H         -0.001 -0.011  0.008   -0.000 -0.010  0.007   -0.001 -0.033  0.025
 H         -0.000  0.001  0.000   -0.020  0.000  0.011    0.000  0.001 -0.000
 H          0.001 -0.011 -0.008   -0.000  0.010  0.007    0.001 -0.033 -0.025
 H         -0.001 -0.006  0.005   -0.005 -0.037  0.024    0.007  0.009 -0.005
 H          0.008  0.000  0.007    0.053  0.001  0.049   -0.164 -0.003 -0.157
 H         -0.002  0.000  0.000    0.026 -0.001 -0.017   -0.190  0.008  0.112
 H          0.017  0.543 -0.420    0.000  0.042 -0.031    0.002  0.109 -0.085
 H         -0.017  0.543  0.420    0.000 -0.042 -0.031   -0.002  0.109  0.085
 H          0.000  0.006 -0.000    0.662 -0.000 -0.444    0.000 -0.020 -0.000
 H         -0.001 -0.123 -0.092   -0.019 -0.339 -0.226    0.010  0.490  0.366
 H          0.001 -0.123  0.092   -0.019  0.339 -0.226   -0.010  0.490 -0.366
 TransDip  -0.000 -0.095  0.000   -0.136  0.000  0.116   -0.000 -0.161 -0.000

 Mode:                49                     50                     51
 Frequency:      3152.97                3153.00                3155.07
 Force Cnst:      6.4445                 6.4439                 6.4496
 Red. Mass:       1.1003                 1.1001                 1.0997
 IR Active:          YES                    YES                    YES
 IR Intens:        6.806                  3.732                 29.567
 Raman Active:       YES                    YES                    YES
               X      Y      Z        X      Y      Z        X      Y      Z
 C         -0.037  0.032  0.042   -0.030  0.026  0.034   -0.019  0.017  0.022
 Si        -0.000  0.000  0.000   -0.000 -0.000  0.000   -0.001  0.000  0.001
 C          0.001 -0.022 -0.002    0.030  0.001 -0.036   -0.050  0.004  0.060
 C          0.034  0.029 -0.038   -0.034 -0.029  0.038   -0.019 -0.016  0.021
 C          0.000  0.005 -0.000    0.000 -0.000 -0.000    0.000  0.000  0.000
 C         -0.000  0.018  0.000    0.000 -0.001 -0.000   -0.001  0.000  0.003
 H         -0.016  0.007  0.003   -0.014  0.006  0.001   -0.013  0.004 -0.004
 H          0.428  0.025 -0.236    0.354  0.021 -0.195    0.226  0.014 -0.125
 H          0.031 -0.416 -0.269    0.025 -0.339 -0.219    0.017 -0.219 -0.141
 H          0.005  0.123 -0.094    0.001 -0.178  0.121   -0.003  0.268 -0.181
 H         -0.018 -0.005  0.010   -0.365  0.000  0.198    0.612  0.001 -0.329
 H         -0.005  0.140  0.105    0.002  0.168  0.113   -0.002 -0.311 -0.214
 H         -0.028 -0.382  0.247    0.028  0.377 -0.244    0.016  0.208 -0.134
 H          0.014  0.007 -0.003   -0.016 -0.007  0.002   -0.010 -0.003 -0.001
 H         -0.393  0.023  0.216    0.393 -0.024 -0.216    0.219 -0.014 -0.122
 H         -0.001 -0.027  0.021    0.000  0.002 -0.002    0.001  0.004 -0.004
 H          0.001 -0.027 -0.022   -0.000  0.001  0.000    0.001 -0.006 -0.005
 H          0.000  0.004 -0.000   -0.002 -0.000  0.001    0.020  0.000 -0.013
 H         -0.003 -0.111 -0.083    0.000  0.005  0.004   -0.001 -0.014 -0.010
 H          0.003 -0.110  0.082    0.000  0.007 -0.004   -0.001  0.011 -0.007
 TransDip  -0.002  0.084  0.002   -0.042 -0.004  0.046   -0.116  0.006  0.130

 Mode:                52                     53                     54
 Frequency:      3155.36                3156.68                3157.21
 Force Cnst:      6.4524                 6.4600                 6.4577
 Red. Mass:       1.0999                 1.1003                 1.0996
 IR Active:          YES                    YES                    YES
 IR Intens:       20.935                  0.525                 22.147
 Raman Active:       YES                    YES                    YES
               X      Y      Z        X      Y      Z        X      Y      Z
 C          0.005 -0.007 -0.010    0.045  0.019  0.033   -0.053 -0.018 -0.033
 Si        -0.000 -0.001  0.000   -0.000  0.000 -0.000   -0.001  0.000 -0.000
 C         -0.002 -0.089  0.003    0.000 -0.003 -0.000   -0.000  0.000  0.000
 C         -0.006 -0.008  0.011   -0.046  0.019 -0.034   -0.052  0.018 -0.032
 C          0.000 -0.004  0.000    0.000 -0.007 -0.000    0.000  0.000 -0.001
 C         -0.000 -0.008  0.000    0.000 -0.036 -0.000    0.006  0.001 -0.010
 H          0.024 -0.002  0.019   -0.387  0.009 -0.360    0.430 -0.011  0.403
 H         -0.071 -0.005  0.038   -0.183 -0.003  0.116    0.243  0.007 -0.151
 H         -0.009  0.099  0.063    0.033 -0.233 -0.149   -0.033  0.224  0.143
 H          0.017  0.556 -0.419    0.001  0.015 -0.011    0.000 -0.003  0.003
 H          0.026 -0.020 -0.014   -0.001 -0.000  0.000    0.009  0.000 -0.004
 H         -0.017  0.532  0.402   -0.001  0.016  0.012    0.000 -0.002 -0.001
 H          0.009  0.113 -0.072   -0.034 -0.241  0.154   -0.032 -0.218  0.139
 H         -0.021 -0.002 -0.016    0.400  0.010  0.373    0.418  0.011  0.392
 H          0.090 -0.006 -0.048    0.189 -0.004 -0.120    0.236 -0.007 -0.147
 H          0.002  0.023 -0.018    0.000  0.040 -0.031   -0.000 -0.007  0.006
 H         -0.002  0.023  0.018   -0.000  0.040  0.031   -0.000  0.006  0.004
 H          0.000 -0.002 -0.000   -0.001 -0.008  0.001   -0.076  0.000  0.052
 H          0.001  0.047  0.035    0.004  0.220  0.164    0.003  0.048  0.032
 H         -0.001  0.048 -0.036   -0.004  0.219 -0.164    0.003 -0.056  0.038
 TransDip  -0.005 -0.146  0.005   -0.002 -0.023 -0.002   -0.118  0.001 -0.094

 STANDARD THERMODYNAMIC QUANTITIES AT   298.15 K  AND     1.00 ATM

   This Molecule has  0 Imaginary Frequencies
   Zero point vibrational energy:      111.794 kcal/mol

   Atom    1 Element C  Has Mass   12.00000
   Atom    2 Element Si Has Mass   27.97693
   Atom    3 Element C  Has Mass   12.00000
   Atom    4 Element C  Has Mass   12.00000
   Atom    5 Element C  Has Mass   12.00000
   Atom    6 Element C  Has Mass   12.00000
   Atom    7 Element H  Has Mass    1.00783
   Atom    8 Element H  Has Mass    1.00783
   Atom    9 Element H  Has Mass    1.00783
   Atom   10 Element H  Has Mass    1.00783
   Atom   11 Element H  Has Mass    1.00783
   Atom   12 Element H  Has Mass    1.00783
   Atom   13 Element H  Has Mass    1.00783
   Atom   14 Element H  Has Mass    1.00783
   Atom   15 Element H  Has Mass    1.00783
   Atom   16 Element H  Has Mass    1.00783
   Atom   17 Element H  Has Mass    1.00783
   Atom   18 Element H  Has Mass    1.00783
   Atom   19 Element H  Has Mass    1.00783
   Atom   20 Element H  Has Mass    1.00783
   Molecular Mass:   102.086550 amu
   Principal axes and moments of inertia in amu*Bohr^2:
                             1           2           3
    Eigenvalues --      595.01384   974.95500   975.65793
          X               0.99993     0.01146    -0.00000
          Y              -0.00000     0.00041     1.00000
          Z              -0.01146     0.99993    -0.00041
   Rotational Symmetry Number is   1
   The Molecule is an Asymmetric Top
   Translational Enthalpy:        0.889 kcal/mol
   Rotational Enthalpy:           0.889 kcal/mol
   Vibrational Enthalpy:        116.694 kcal/mol
   gas constant (RT):             0.592 kcal/mol
   Translational Entropy:        39.779  cal/mol.K
   Rotational Entropy:           27.828  cal/mol.K
   Vibrational Entropy:          30.447  cal/mol.K

   Total Enthalpy:              119.064 kcal/mol
   Total Entropy:                98.054  cal/mol.K
Archival summary:
1\1\mm2.localdomain\FREQ\MP2\6-311+G**\i1514\xuedong\SunJun2122:44:552020SunJun2122:44:552020\0\\#,FREQ,MP2,6-311+G**,\\0,1\Si\C,1,1.88152\H,2,1.09529,1,111.234\H,2,1.09529,1,111.234,3,120.067,0\H,2,1.09535,1,111.186,3,-119.967,0\C,1,1.88256,2,109.472,3,60.0869,0\H,6,1.09498,1,111.545,2,177.737,0\H,6,1.09543,1,110.992,2,57.8455,0\H,6,1.09549,1,111.213,2,-61.9558,0\C,1,1.88256,2,109.472,3,179.846,0\H,10,1.09498,1,111.545,2,-177.737,0\H,10,1.09543,1,110.992,2,-57.8452,0\H,10,1.09549,1,111.213,2,61.9562,0\C,1,1.88759,2,109.349,3,-60.0334,0\H,14,1.09825,1,108.496,2,-57.2722,0\H,14,1.09825,1,108.496,2,57.2726,0\C,14,1.53776,1,114.399,2,-180,0\H,17,1.0946,14,111.629,1,180,0\H,17,1.09473,14,111.263,1,59.9729,0\H,17,1.09473,14,111.263,1,-59.9729,0\\HF=-486.520892\MP2=-487.402873\\@

 Total job time:  7115.67s(wall), 16313.19s(cpu) 
 Sun Jun 21 22:44:55 2020

        *************************************************************
        *                                                           *
        *  Thank you very much for using Q-Chem.  Have a nice day.  *
        *                                                           *
        *************************************************************


