
Running Job 1 of 2 12.freq.qcinp
qchem 12.freq.qcinp_12163.0 /scratch/xuedong/qchem12163/ 1
/home/qwang/software/qchem5.1/exe/qcprog.exe_s 12.freq.qcinp_12163.0 /scratch/xuedong/qchem12163/
Check license passed

                  Welcome to Q-Chem
     A Quantum Leap Into The Future Of Chemistry


 Q-Chem 5.1, Q-Chem, Inc., Pleasanton, CA (2018)

 Yihan Shao,  Zhengting Gan,  E. Epifanovsky,  A. T. B. Gilbert,  M. Wormit,  
 J. Kussmann,  A. W. Lange,  A. Behn,  Jia Deng,  Xintian Feng,  D. Ghosh,  
 M. Goldey,  P. R. Horn,  L. D. Jacobson,  I. Kaliman,  T. Kus,  A. Landau,  
 Jie Liu,  E. I. Proynov,  R. M. Richard,  R. P. Steele,  E. J. Sundstrom,  
 H. L. Woodcock III,  P. M. Zimmerman,  D. Zuev,  B. Albrecht,  E. Alguire,  
 S. A. Baeppler,  D. Barton,  Z. Benda,  Y. A. Bernard,  E. J. Berquist,  
 K. B. Bravaya,  H. Burton,  D. Casanova,  Chun-Min Chang,  Yunqing Chen,  
 A. Chien,  K. D. Closser,  M. P. Coons,  S. Coriani,  S. Dasgupta,  
 A. L. Dempwolff,  M. Diedenhofen,  Hainam Do,  R. G. Edgar,  Po-Tung Fang,  
 S. Faraji,  S. Fatehi,  Qingguo Feng,  K. D. Fenk,  J. Fosso-Tande,  
 Qinghui Ge,  A. Ghysels,  G. Gidofalvi,  J. Gomes,  J. Gonthier,  A. Gunina,  
 D. Hait,  M. W. D. Hanson-Heine,  P. H. P. Harbach,  A. W. Hauser,  
 J. E. Herr,  E. G. Hohenstein,  Z. C. Holden,  Kerwin Hui,  B. C. Huynh,  
 T.-C. Jagau,  Hyunjun Ji,  B. Kaduk,  K. Khistyaev,  Jaehoon Kim,  
 P. Klunzinger,  K. Koh,  D. Kosenkov,  L. Koulias,  T. Kowalczyk,  
 C. M. Krauter,  A. Kunitsa,  Ka Un Lao,  A. Laurent,  K. V. Lawler,  
 Joonho Lee,  D. Lefrancois,  S. Lehtola,  D. S. Levine,  Yi-Pei Li,  
 You-Sheng Lin,  Fenglai Liu,  E. Livshits,  A. Luenser,  P. Manohar,  
 E. Mansoor,  S. F. Manzer,  Shan-Ping Mao,  Yuezhi Mao,  N. Mardirossian,  
 A. V. Marenich,  T. Markovich,  L. A. Martinez-Martinez,  S. A. Maurer,  
 N. J. Mayhall,  S. C. McKenzie,  J.-M. Mewes,  A. F. Morrison,  
 J. W. Mullinax,  K. Nanda,  T. S. Nguyen-Beck,  R. Olivares-Amaya,  
 J. A. Parkhill,  T. M. Perrine,  F. Plasser,  P. Pokhilko,  S. Prager,  
 A. Prociuk,  E. Ramos,  D. R. Rehn,  F. Rob,  M. Schneider,  N. Sergueev,  
 S. M. Sharada,  S. Sharma,  D. W. Small,  T. Stauch,  T. Stein,  
 Yu-Chuan Su,  A. J. W. Thom,  A. Tkatchenko,  T. Tsuchimochi,  N. M. Tubman,  
 L. Vogt,  M. L. Vidal,  O. Vydrov,  M. A. Watson,  J. Wenzel,  
 M. de Wergifosse,  T. A. Wesolowski,  A. White,  J. Witte,  A. Yamada,  
 Jun Yang,  K. Yao,  S. Yeganeh,  S. R. Yost,  Zhi-Qiang You,  A. Zech,  
 Igor Ying Zhang,  Xing Zhang,  Yan Zhao,  Ying Zhu,  B. R. Brooks,  
 G. K. L. Chan,  C. J. Cramer,  M. S. Gordon,  W. J. Hehre,  A. Klamt,  
 M. W. Schmidt,  C. D. Sherrill,  D. G. Truhlar,  A. Aspuru-Guzik,  R. Baer,  
 A. T. Bell,  N. A. Besley,  Jeng-Da Chai,  R. A. DiStasio Jr.,  A. Dreuw,  
 B. D. Dunietz,  T. R. Furlani,  Chao-Ping Hsu,  Yousung Jung,  Jing Kong,  
 D. S. Lambrecht,  WanZhen Liang,  C. Ochsenfeld,  V. A. Rassolov,  
 L. V. Slipchenko,  J. E. Subotnik,  T. Van Voorhis,  J. M. Herbert,  
 A. I. Krylov,  P. M. W. Gill,  M. Head-Gordon

 Contributors to earlier versions of Q-Chem not listed above: 
 R. D. Adamson,  B. Austin,  J. Baker,  G. J. O. Beran,  K. Brandhorst,  
 S. T. Brown,  E. F. C. Byrd,  A. K. Chakraborty,  C.-L. Cheng,  
 Siu Hung Chien,  D. M. Chipman,  D. L. Crittenden,  H. Dachsel,  
 R. J. Doerksen,  A. D. Dutoi,  L. Fusti-Molnar,  W. A. Goddard III,  
 A. Golubeva-Zadorozhnaya,  S. R. Gwaltney,  G. Hawkins,  A. Heyden,  
 S. Hirata,  G. Kedziora,  F. J. Keil,  C. Kelley,  Jihan Kim,  R. A. King,  
 R. Z. Khaliullin,  P. P. Korambath,  W. Kurlancheek,  A. M. Lee,  M. S. Lee,  
 S. V. Levchenko,  Ching Yeh Lin,  D. Liotard,  R. C. Lochan,  I. Lotan,  
 P. E. Maslen,  N. Nair,  D. P. O'Neill,  D. Neuhauser,  E. Neuscamman,  
 C. M. Oana,  R. Olson,  B. Peters,  R. Peverati,  P. A. Pieniazek,  
 Y. M. Rhee,  J. Ritchie,  M. A. Rohrdanz,  E. Rosta,  N. J. Russ,  
 H. F. Schaefer III,  N. E. Schultz,  N. Shenvi,  A. C. Simmonett,  A. Sodt,  
 D. Stuck,  K. S. Thanthiriwatte,  V. Vanovschi,  Tao Wang,  A. Warshel,  
 C. F. Williams,  Q. Wu,  X. Xu,  W. Zhang

 Please cite Q-Chem as follows:
 Y. Shao et al., Mol. Phys. 113, 184-215 (2015)
 DOI: 10.1080/00268976.2014.952696

 Q-Chem 5.1.0 for Intel X86 EM64T Linux

 Parts of Q-Chem use Armadillo 8.300.2 (Tropical Shenanigans).
 http://arma.sourceforge.net/

 Q-Chem begins on Sun Jun 21 22:44:55 2020  

Host: 
0

     Scratch files written to /scratch/xuedong/qchem12163//
 May118 |scratch|qcdevops|jenkins|workspace|build_RNUM 6581   
Processing $rem in /home/qwang/software/qchem5.1/config/preferences.
 MEM_TOTAL  2000 
Core orbitals will be frozen

Checking the input file for inconsistencies... 	...done.

--------------------------------------------------------------
User input:
--------------------------------------------------------------
$molecule
0 1
C         0.5402087113    0.7183865438    1.7526815259
Si        0.4092544596    0.0106586400    0.0122835363
C         1.8438845891    0.6198050534   -1.0561011399
C         0.4282334870   -1.8776922298    0.0799011338
C        -1.2288520427    0.5763472094   -0.7647268465
N        -2.3522634626   -0.0293941565   -0.0196469543
H        -0.3477098698    0.4510016974    2.3321680344
H         1.4216552346    0.3390083589    2.2791743988
H         0.6087157096    1.8107180378    1.7318301909
H         1.7907314185    0.2093532350   -2.0695064172
H         2.8074680369    0.3237670415   -0.6292391397
H         1.8425757394    1.7114028530   -1.1395675917
H         0.2905514997   -2.3173701589   -0.9135979242
H        -0.3636131170   -2.2592693361    0.7320158772
H         1.3805732597   -2.2472075104    0.4733436133
H        -1.2483268033    0.3818537228   -1.8512869103
H        -1.3003313630    1.6648214274   -0.6487804508
H        -3.2396512799    0.3362735789   -0.3643798763
H        -2.3757222961   -1.0302034267   -0.2066225705
$end

$rem
JOBTYPE  =  opt
METHOD  =  MP2
BASIS  =  6-311G+(d,p)
SCF_MAX_CYCLES  =  200
GEOM_OPT_MAX_CYCLES  =  300
GEOM_OPT_TOL_DISPLACEMENT = 120
GEOM_OPT_TOL_ENERGY = 10
GEOM_OPT_TOL_GRADIENT = 20
$end
--------------------------------------------------------------
 ----------------------------------------------------------------
             Standard Nuclear Orientation (Angstroms)
    I     Atom           X                Y                Z
 ----------------------------------------------------------------
    1      C       0.6013774389     0.9305521183     1.6350447114
    2      Si      0.4093434133     0.0032348438     0.0070955201
    3      C       1.8467056049     0.4034882688    -1.1524112301
    4      C       0.3541122177    -1.8583456409     0.3268907111
    5      C      -1.2192507524     0.5287855728    -0.8166878738
    6      N      -2.3516783715     0.0756809915     0.0178322234
    7      H      -0.2853972121     0.7804765796     2.2569825920
    8      H       1.4767589096     0.5879612757     2.1957668540
    9      H       0.7130796528     2.0064838622     1.4670876401
   10      H       1.7580298960    -0.1358163706    -2.1008696295
   11      H       2.8055897999     0.1266731202    -0.7026810814
   12      H       1.8874464650     1.4732864027    -1.3813790289
   13      H       0.1801988596    -2.4203731544    -0.5967935462
   14      H      -0.4398744030    -2.1158555449     1.0348099624
   15      H       1.2981949215    -2.2118984178     0.7535027741
   16      H      -1.2670337357     0.1921439190    -1.8670254092
   17      H      -1.2449643529     1.6250369295    -0.8467004839
   18      H      -3.2301049991     0.4291819634    -0.3608689005
   19      H      -2.4186500425    -0.9392372331    -0.0330124998
 ----------------------------------------------------------------
 Molecular Point Group                 C1    NOp =  1
 Largest Abelian Subgroup              C1    NOp =  1
 Nuclear Repulsion Energy =   321.1558560204 hartrees
 There are       29 alpha and       29 beta electrons
 Requested basis set is 6-311+G(d,p)
 There are 95 shells and 218 basis functions

 Total QAlloc Memory Limit   2000 MB
 Mega-Array Size       188 MB
 MEM_STATIC part       192 MB
 A cutoff of  1.0D-11 yielded   4179 shell pairs
 There are     22598 function pairs (     23915 Cartesian)
 
 -------------------------------------------------------
 OpenMP Integral Computing Module                       
 Release: version 1.0, May 2013, Q-Chem Inc. Pittsburgh 
 -------------------------------------------------------
 Integral Job Info:
 Integral job number is                      11
 Integral operator is                         1
 short-range coefficients                     0
 long-range coefficients              100000000
 Omega coefficients                           0
 if combine SR and LR in K                    0
 Integral screening is                        0
 Integral computing path is                   2
 max size of driver memory is            800000
 size of driver memory is                593474
 size of scratch memory is              4204008
 max col of scratch BK array               1296
 max len of scratch array in speh3          155
 max len of scratch index in speh4           18
 max int batch size is                      520
 min int batch size is                       52
 fixed nKL is                                52
 max L of basis functions is                  2
 order of int derivative is                   0
 number of shells is                         95
 number of basis is                         224
 number of cartesian basis is               224
 number of contracted shell pairs          4179
 number of primitive shell pairs           9331
 maxK2 (contraction) of shell pair           36
 max number of K2 of shell pair               1
 max number of CS2 of shell pair            523
 max number of PS2 of shell pair           1137
 mem total for path MDJ                  526466
 -------------------------------------------------------
 Smallest overlap matrix eigenvalue = 1.23E-04

 Scale SEOQF with 1.000000e-01/1.000000e-01/1.000000e-01

 Standard Electronic Orientation quadrupole field applied
 Nucleus-field energy     =     0.0000000021 hartrees
 Guess from superposition of atomic densities
 Warning:  Energy on first SCF cycle will be non-variational
 SAD guess density has 58.000000 electrons

 -----------------------------------------------------------------------
  General SCF calculation program by
  Eric Jon Sundstrom, Paul Horn, Yuezhi Mao, Dmitri Zuev, Alec White,
  David Stuck, Shaama M.S., Shane Yost, Joonho Lee, David Small,
  Daniel Levine, Susi Lehtola, Hugh Burton, Evgeny Epifanovsky
 -----------------------------------------------------------------------
 Hartree-Fock
 using 4 threads for integral computing
 -------------------------------------------------------
 OpenMP Integral computing Module                
 Release: version 1.0, May 2013, Q-Chem Inc. Pittsburgh 
 -------------------------------------------------------
 A restricted SCF calculation will be
 performed using DIIS
 SCF converges when DIIS error is below 1.0e-08
 ---------------------------------------
  Cycle       Energy         DIIS error
 ---------------------------------------
    1    -504.0551646063      4.09e-02  
    2    -502.4350986377      3.15e-03  
    3    -502.5053615939      1.04e-03  
    4    -502.5126802749      3.95e-04  
    5    -502.5138410999      7.23e-05  
    6    -502.5138874252      2.29e-05  
    7    -502.5138932855      5.23e-06  
    8    -502.5138937386      1.50e-06  
    9    -502.5138937878      4.04e-07  
   10    -502.5138937913      1.33e-07  
   11    -502.5138937916      3.68e-08  
   12    -502.5138937916      7.77e-09  Convergence criterion met
 ---------------------------------------
 SCF time:   CPU 40.78s  wall 10.00s 
 SCF   energy in the final basis set =     -502.5138937916
 Total energy in the final basis set =     -502.5138937916
 
 Components of the MP2 correlation energy:
        aaaa  correlation energy =        -0.1034619994 au
        abab  correlation energy =        -0.7033567780 au
        bbbb  correlation energy =        -0.1034619994 au
        non-Brillouin singles    =        -0.0000000000 au

 Total  MP2   correlation energy =                    -0.91028078 au
        MP2         total energy =                  -503.42417457 au
  Entering Z-vector solver.
   1         0           1      0.000175    0.000175
   2         0           1      0.000050    0.000050
   3         0           1      0.000010    0.000010
   4         0           1      0.000004    0.000004
   5         1           0      0.000000    0.000000    Roots Converged
 
 --------------------------------------------------------------
 
                    Orbital Energies (a.u.)
 --------------------------------------------------------------
 
 Alpha MOs
 -- Occupied --
-68.749 -15.542 -11.227 -11.196 -11.196 -11.190  -6.095  -4.202
 -4.202  -4.202  -1.165  -0.963  -0.920  -0.916  -0.877  -0.664
 -0.615  -0.601  -0.565  -0.558  -0.553  -0.539  -0.534  -0.526
 -0.524  -0.432  -0.425  -0.420  -0.379
 -- Virtual --
  0.053   0.069   0.072   0.076   0.107   0.115   0.116   0.124
  0.131   0.149   0.151   0.153   0.158   0.175   0.179   0.188
  0.189   0.190   0.195   0.218   0.226   0.238   0.256   0.268
  0.275   0.281   0.285   0.296   0.309   0.317   0.319   0.330
  0.348   0.364   0.368   0.374   0.396   0.398   0.405   0.416
  0.439   0.477   0.480   0.483   0.492   0.502   0.547   0.634
  0.638   0.654   0.676   0.678   0.693   0.702   0.706   0.716
  0.734   0.762   0.794   0.845   0.850   0.860   0.874   0.885
  0.897   0.905   0.915   0.931   0.935   0.943   0.953   0.980
  0.995   1.047   1.054   1.093   1.109   1.116   1.123   1.145
  1.170   1.184   1.231   1.299   1.305   1.336   1.399   1.420
  1.448   1.485   1.490   1.523   1.640   1.715   1.730   1.738
  1.740   1.756   1.770   1.785   1.830   1.839   1.851   1.856
  1.874   1.883   1.897   1.899   1.934   1.941   1.983   1.997
  2.007   2.021   2.032   2.053   2.078   2.087   2.101   2.108
  2.147   2.173   2.264   2.300   2.334   2.370   2.374   2.466
  2.483   2.494   2.507   2.535   2.556   2.570   2.572   2.750
  2.782   2.792   2.795   2.811   2.818   2.833   2.884   2.894
  2.900   2.907   2.916   2.929   2.942   2.948   2.956   2.966
  2.975   2.984   3.003   3.034   3.064   3.136   3.166   3.226
  3.278   3.291   3.351   3.490   3.546   3.686   3.709   3.726
  3.933   4.130   4.142   4.148   4.155   4.186   4.189   4.199
  4.626   5.203   5.274   6.316  12.429  12.441  12.455  25.005
 25.118  25.124  25.143  37.013 144.070
 --------------------------------------------------------------
 
          Ground-State Mulliken Net Atomic Charges

     Atom                 Charge (a.u.)
  ----------------------------------------
      1 C                    -0.787302
      2 Si                    1.170115
      3 C                    -0.762552
      4 C                    -0.814330
      5 C                    -0.625470
      6 N                    -0.451747
      7 H                     0.189312
      8 H                     0.162109
      9 H                     0.162671
     10 H                     0.161811
     11 H                     0.164960
     12 H                     0.162487
     13 H                     0.169438
     14 H                     0.167605
     15 H                     0.168304
     16 H                     0.144023
     17 H                     0.161632
     18 H                     0.231911
     19 H                     0.225024
  ----------------------------------------
  Sum of atomic charges =    -0.000000

 -----------------------------------------------------------------
                    Cartesian Multipole Moments
 -----------------------------------------------------------------
    Charge (ESU x 10^10)
                 0.0000
    Dipole Moment (Debye)
         X      -0.2195      Y      -0.3734      Z      -1.1771
       Tot       1.2543
    Quadrupole Moments (Debye-Ang)
        XX     -47.2425     XY       0.7054     YY     -48.4128
        XZ       3.5820     YZ      -0.7591     ZZ     -50.8819
    Octopole Moments (Debye-Ang^2)
       XXX     -18.2286    XXY      -3.5720    XYY      -5.0197
       YYY       5.9717    XXZ      -4.5313    XYZ       1.3333
       YYZ      -2.6846    XZZ      -1.0581    YZZ      -3.6844
       ZZZ      -3.0580
    Hexadecapole Moments (Debye-Ang^3)
      XXXX    -554.5654   XXXY      -6.3002   XXYY    -151.0853
      XYYY       4.2632   YYYY    -347.7146   XXXZ      35.5882
      XXYZ      -5.8137   XYYZ       0.3487   YYYZ      -0.2458
      XXZZ    -168.7939   XYZZ      -2.0709   YYZZ    -116.0627
      XZZZ       2.5671   YZZZ      -1.7667   ZZZZ    -348.4909
 -----------------------------------------------------------------
 DrvMan is completing analytic gradient of the MP2 energy
 MP2 relaxed dipole moment
            1
    1  -0.0863730
    2  -0.1469202
    3  -0.4631084
	Magnitude:	 0.493 au	 1.254 Debye
 MP2 energy read as -503.424175
 Full Analytical Gradient of MP2 Energy (in au.)
             1             2             3             4             5
    1    0.00057501   -0.00224565    0.00211420    0.00033464   -0.00214838
    2    0.00125524   -0.00010629    0.00048121   -0.00245778   -0.00081092
    3    0.00223152    0.00062667   -0.00150484    0.00044519   -0.00077157
             6             7             8             9            10
    1    0.00365396    0.00041717   -0.00031818   -0.00005697    0.00018672
    2    0.00242215    0.00017358    0.00036551   -0.00031078    0.00035790
    3    0.00373738   -0.00034410    0.00005837    0.00036996    0.00020253
            11            12            13            14            15
    1   -0.00021047    0.00017707    0.00004791    0.00031876   -0.00043607
    2    0.00016960   -0.00041206   -0.00004158   -0.00000828   -0.00022479
    3   -0.00035000   -0.00010856    0.00042700   -0.00033354   -0.00013554
            16            17            18            19
    1   -0.00005556   -0.00051215   -0.00220999    0.00036798
    2    0.00042901   -0.00008651    0.00075886   -0.00195407
    3   -0.00127154   -0.00023011   -0.00165662   -0.00139220
 Gradient time:  CPU 0.16 s  wall 0.11 s
 Geometry Optimization Parameters
   NAtoms,    NIC,     NZ,  NCons,   NDum,   NFix, NCnnct, MaxDiis
       19     131       0       0       0       0       0       0


** GEOMETRY OPTIMIZATION IN DELOCALIZED INTERNAL COORDINATES **
   Searching for a Minimum

   Optimization Cycle:   1

                       Coordinates (Angstroms)
     ATOM                X               Y               Z
      1  C         0.6013774389    0.9305521183    1.6350447114
      2  Si        0.4093434133    0.0032348438    0.0070955201
      3  C         1.8467056049    0.4034882688   -1.1524112301
      4  C         0.3541122177   -1.8583456409    0.3268907111
      5  C        -1.2192507524    0.5287855728   -0.8166878738
      6  N        -2.3516783715    0.0756809915    0.0178322234
      7  H        -0.2853972121    0.7804765796    2.2569825920
      8  H         1.4767589096    0.5879612757    2.1957668540
      9  H         0.7130796528    2.0064838622    1.4670876401
     10  H         1.7580298960   -0.1358163706   -2.1008696295
     11  H         2.8055897999    0.1266731202   -0.7026810814
     12  H         1.8874464650    1.4732864027   -1.3813790289
     13  H         0.1801988596   -2.4203731544   -0.5967935462
     14  H        -0.4398744030   -2.1158555449    1.0348099624
     15  H         1.2981949215   -2.2118984178    0.7535027741
     16  H        -1.2670337357    0.1921439190   -1.8670254092
     17  H        -1.2449643529    1.6250369295   -0.8467004839
     18  H        -3.2301049991    0.4291819634   -0.3608689005
     19  H        -2.4186500425   -0.9392372331   -0.0330124998
   Point Group: c1    Number of degrees of freedom:    51


   Energy is   -503.424174568


 Attempting to Generate Delocalized Internal Coordinates

 51 Hessian modes will be used to form the next step
  Hessian Eigenvalues:
     0.002000    0.002441    0.002445    0.003275    0.005344    0.041542
     0.042758    0.045767    0.047961    0.048937    0.053465    0.053664
     0.054051    0.054153    0.054320    0.055379    0.055896    0.087766
     0.125086    0.143612    0.144226    0.160000    0.160000    0.160000
     0.160000    0.160000    0.160000    0.160000    0.160000    0.160000
     0.160000    0.160000    0.196332    0.201589    0.201608    0.205147
     0.218457    0.332434    0.340202    0.342263    0.342655    0.342764
     0.342778    0.342792    0.342793    0.342905    0.343006    0.344135
     0.348138    0.443685    0.445950

 Minimum Search - Taking Simple RFO Step
 Searching for Lamda that Minimizes Along All modes
 Value Taken    Lamda =  -0.00030627
 Step Taken.  Stepsize is  0.062672

                             Maximum     Tolerance    Cnvgd?
         Gradient           0.004375      0.000020      NO
         Displacement       0.032720      0.000120      NO
         Energy change     *********      0.000000      NO


 New Cartesian Coordinates Obtained by Inverse Iteration

 Displacement from previous Coordinates is:  0.088882
 ----------------------------------------------------------------
             Standard Nuclear Orientation (Angstroms)
    I     Atom           X                Y                Z
 ----------------------------------------------------------------
    1      C       0.5999822205     0.9247576630     1.6296139021
    2      Si      0.4118273626     0.0036607715     0.0059978498
    3      C       1.8435821369     0.4039040859    -1.1479391165
    4      C       0.3543442611    -1.8509822797     0.3231519579
    5      C      -1.2136313436     0.5272851298    -0.8148398860
    6      N      -2.3554435411     0.0787075366     0.0130094151
    7      H      -0.2870313385     0.7721520956     2.2521039442
    8      H       1.4766934951     0.5802738637     2.1881139235
    9      H       0.7114103751     2.0012366954     1.4612825335
   10      H       1.7567917914    -0.1392510551    -2.0950261524
   11      H       2.8023121792     0.1302679233    -0.6945537386
   12      H       1.8803451467     1.4741539210    -1.3782185346
   13      H       0.1793600143    -2.4109364617    -0.6022222690
   14      H      -0.4392882908    -2.1082015948     1.0326337330
   15      H       1.3001873511    -2.2032757192     0.7483136976
   16      H      -1.2581354741     0.1810781061    -1.8603957099
   17      H      -1.2331813030     1.6235685732    -0.8514760835
   18      H      -3.2315141768     0.4278289764    -0.3662987925
   19      H      -2.4247275559    -0.9347687452    -0.0066673684
 ----------------------------------------------------------------
 Molecular Point Group                 C1    NOp =  1
 Largest Abelian Subgroup              C1    NOp =  1
 Nuclear Repulsion Energy =   321.7684002400 hartrees
 There are       29 alpha and       29 beta electrons
 Applying Cartesian multipole field
    Component          Value
    ---------          -----
     (2,0,0)        1.00000E-11
     (0,2,0)        2.00000E-11
     (0,0,2)       -3.00000E-11
 Nucleus-field energy     =     0.0000000021 hartrees
 Requested basis set is 6-311+G(d,p)
 There are 95 shells and 218 basis functions
 A cutoff of  1.0D-11 yielded   4183 shell pairs
 There are     22614 function pairs (     23931 Cartesian)
 Smallest overlap matrix eigenvalue = 1.23E-04
 Guess MOs from SCF MO coefficient file
 Reading MOs from coefficient file
 Reading MOs from coefficient file

 -----------------------------------------------------------------------
  General SCF calculation program by
  Eric Jon Sundstrom, Paul Horn, Yuezhi Mao, Dmitri Zuev, Alec White,
  David Stuck, Shaama M.S., Shane Yost, Joonho Lee, David Small,
  Daniel Levine, Susi Lehtola, Hugh Burton, Evgeny Epifanovsky
 -----------------------------------------------------------------------
 Hartree-Fock
 using 4 threads for integral computing
 -------------------------------------------------------
 OpenMP Integral computing Module                
 Release: version 1.0, May 2013, Q-Chem Inc. Pittsburgh 
 -------------------------------------------------------
 A restricted SCF calculation will be
 performed using DIIS
 SCF converges when DIIS error is below 1.0e-08
 ---------------------------------------
  Cycle       Energy         DIIS error
 ---------------------------------------
    1    -502.5198471200      2.66e-04  
    2    -502.5140677161      4.21e-05  
    3    -502.5140840371      1.59e-05  
    4    -502.5140863749      6.59e-06  
    5    -502.5140869024      1.87e-06  
    6    -502.5140869558      5.55e-07  
    7    -502.5140869616      1.82e-07  
    8    -502.5140869622      4.60e-08  
    9    -502.5140869622      1.19e-08  
   10    -502.5140869622      3.56e-09  Convergence criterion met
 ---------------------------------------
 SCF time:   CPU 36.07s  wall 9.00s 
 SCF   energy in the final basis set =     -502.5140869622
 Total energy in the final basis set =     -502.5140869622
 
 Components of the MP2 correlation energy:
        aaaa  correlation energy =        -0.1035120867 au
        abab  correlation energy =        -0.7032227881 au
        bbbb  correlation energy =        -0.1035120867 au
        non-Brillouin singles    =        -0.0000000000 au

 Total  MP2   correlation energy =                    -0.91024696 au
        MP2         total energy =                  -503.42433392 au
  Entering Z-vector solver.
   1         0           1      0.000174    0.000174
   2         0           1      0.000050    0.000050
   3         0           1      0.000010    0.000010
   4         0           1      0.000004    0.000004
   5         1           0      0.000000    0.000000    Roots Converged
 
 --------------------------------------------------------------
 
                    Orbital Energies (a.u.)
 --------------------------------------------------------------
 
 Alpha MOs
 -- Occupied --
-68.747 -15.541 -11.227 -11.196 -11.196 -11.189  -6.094  -4.201
 -4.201  -4.201  -1.164  -0.965  -0.921  -0.916  -0.878  -0.664
 -0.615  -0.601  -0.567  -0.559  -0.553  -0.540  -0.535  -0.526
 -0.524  -0.431  -0.426  -0.421  -0.377
 -- Virtual --
  0.053   0.069   0.072   0.075   0.107   0.115   0.116   0.124
  0.131   0.149   0.151   0.153   0.158   0.175   0.179   0.188
  0.189   0.191   0.195   0.218   0.226   0.238   0.255   0.269
  0.275   0.282   0.286   0.295   0.309   0.317   0.320   0.330
  0.349   0.364   0.370   0.375   0.396   0.398   0.405   0.417
  0.439   0.477   0.481   0.484   0.494   0.502   0.547   0.634
  0.637   0.654   0.675   0.677   0.694   0.701   0.707   0.717
  0.736   0.765   0.796   0.844   0.849   0.860   0.874   0.885
  0.896   0.905   0.916   0.932   0.934   0.942   0.953   0.979
  0.996   1.048   1.055   1.092   1.113   1.116   1.127   1.149
  1.170   1.185   1.231   1.300   1.305   1.338   1.402   1.422
  1.450   1.487   1.492   1.524   1.641   1.718   1.728   1.737
  1.739   1.758   1.771   1.785   1.831   1.840   1.851   1.855
  1.877   1.882   1.896   1.899   1.938   1.942   1.982   1.998
  2.008   2.018   2.034   2.053   2.081   2.090   2.105   2.112
  2.149   2.174   2.268   2.302   2.334   2.367   2.372   2.467
  2.482   2.494   2.507   2.535   2.558   2.570   2.573   2.749
  2.781   2.794   2.795   2.812   2.819   2.833   2.880   2.893
  2.898   2.906   2.916   2.927   2.943   2.948   2.957   2.968
  2.975   2.984   3.006   3.034   3.067   3.137   3.171   3.229
  3.281   3.295   3.356   3.493   3.551   3.691   3.715   3.732
  3.932   4.132   4.141   4.147   4.155   4.186   4.189   4.198
  4.615   5.213   5.279   6.324  12.433  12.447  12.461  25.006
 25.117  25.123  25.142  37.018 144.079
 --------------------------------------------------------------
 
          Ground-State Mulliken Net Atomic Charges

     Atom                 Charge (a.u.)
  ----------------------------------------
      1 C                    -0.786712
      2 Si                    1.169060
      3 C                    -0.763412
      4 C                    -0.813819
      5 C                    -0.623353
      6 N                    -0.454870
      7 H                     0.189545
      8 H                     0.162049
      9 H                     0.162769
     10 H                     0.162388
     11 H                     0.165451
     12 H                     0.162965
     13 H                     0.169750
     14 H                     0.167006
     15 H                     0.168287
     16 H                     0.144160
     17 H                     0.161502
     18 H                     0.232095
     19 H                     0.225138
  ----------------------------------------
  Sum of atomic charges =     0.000000

 -----------------------------------------------------------------
                    Cartesian Multipole Moments
 -----------------------------------------------------------------
    Charge (ESU x 10^10)
                 0.0000
    Dipole Moment (Debye)
         X      -0.1784      Y      -0.3867      Z      -1.1570
       Tot       1.2328
    Quadrupole Moments (Debye-Ang)
        XX     -47.2463     XY       0.7750     YY     -48.4243
        XZ       3.4778     YZ      -0.8267     ZZ     -50.8688
    Octopole Moments (Debye-Ang^2)
       XXX     -18.1265    XXY      -3.7977    XYY      -4.9742
       YYY       6.0305    XXZ      -4.3013    XYZ       1.4958
       YYZ      -2.6700    XZZ      -1.0791    YZZ      -3.7764
       ZZZ      -2.9439
    Hexadecapole Moments (Debye-Ang^3)
      XXXX    -553.7849   XXXY      -5.7490   XXYY    -150.8323
      XYYY       4.4597   YYYY    -345.8988   XXXZ      35.2283
      XXYZ      -6.2010   XYYZ       0.2151   YYYZ      -0.2735
      XXZZ    -168.4603   XYZZ      -2.0675   YYZZ    -115.4403
      XZZZ       2.2905   YZZZ      -1.7383   ZZZZ    -346.9523
 -----------------------------------------------------------------
 DrvMan is completing analytic gradient of the MP2 energy
 MP2 relaxed dipole moment
            1
    1  -0.0701995
    2  -0.1521287
    3  -0.4551827
	Magnitude:	 0.485 au	 1.233 Debye
 MP2 energy read as -503.424334
 Full Analytical Gradient of MP2 Energy (in au.)
             1             2             3             4             5
    1    0.00014553   -0.00035766    0.00035893    0.00010389    0.00066782
    2    0.00009392    0.00001536   -0.00006682   -0.00009948    0.00056467
    3    0.00009550    0.00024346    0.00002934    0.00005448   -0.00094106
             6             7             8             9            10
    1    0.00027919   -0.00011491   -0.00003256   -0.00000697   -0.00008049
    2   -0.00022079   -0.00008128   -0.00002858   -0.00000203   -0.00003029
    3    0.00131105   -0.00005161   -0.00006234   -0.00009219   -0.00002098
            11            12            13            14            15
    1    0.00001552   -0.00006532   -0.00000038   -0.00008341   -0.00000174
    2   -0.00002031    0.00004157    0.00004422    0.00008429    0.00008577
    3    0.00000652    0.00003570   -0.00006339    0.00001327   -0.00003770
            16            17            18            19
    1   -0.00011570    0.00027842   -0.00052584   -0.00046429
    2    0.00012838    0.00013322   -0.00008474   -0.00055710
    3    0.00005505   -0.00022678   -0.00019424   -0.00015407
 Gradient time:  CPU 0.15 s  wall 0.11 s
 Geometry Optimization Parameters
   NAtoms,    NIC,     NZ,  NCons,   NDum,   NFix, NCnnct, MaxDiis
       19     131       0       0       0       0       0       0

 Cartesian Hessian Update
 Hessian Updated using BFGS Update


** GEOMETRY OPTIMIZATION IN DELOCALIZED INTERNAL COORDINATES **
   Searching for a Minimum

   Optimization Cycle:   2

                       Coordinates (Angstroms)
     ATOM                X               Y               Z
      1  C         0.5999822205    0.9247576630    1.6296139021
      2  Si        0.4118273626    0.0036607715    0.0059978498
      3  C         1.8435821369    0.4039040859   -1.1479391165
      4  C         0.3543442611   -1.8509822797    0.3231519579
      5  C        -1.2136313436    0.5272851298   -0.8148398860
      6  N        -2.3554435411    0.0787075366    0.0130094151
      7  H        -0.2870313385    0.7721520956    2.2521039442
      8  H         1.4766934951    0.5802738637    2.1881139235
      9  H         0.7114103751    2.0012366954    1.4612825335
     10  H         1.7567917914   -0.1392510551   -2.0950261524
     11  H         2.8023121792    0.1302679233   -0.6945537386
     12  H         1.8803451467    1.4741539210   -1.3782185346
     13  H         0.1793600143   -2.4109364617   -0.6022222690
     14  H        -0.4392882908   -2.1082015948    1.0326337330
     15  H         1.3001873511   -2.2032757192    0.7483136976
     16  H        -1.2581354741    0.1810781061   -1.8603957099
     17  H        -1.2331813030    1.6235685732   -0.8514760835
     18  H        -3.2315141768    0.4278289764   -0.3662987925
     19  H        -2.4247275559   -0.9347687452   -0.0066673684
   Point Group: c1    Number of degrees of freedom:    51


   Energy is   -503.424333924

 Hessian Updated using BFGS Update

 42 Hessian modes will be used to form the next step
  Hessian Eigenvalues:
     0.001993    0.002438    0.002442    0.003274    0.005241    0.040386
     0.041838    0.045735    0.048039    0.049153    0.053449    0.053644
     0.054050    0.054138    0.054322    0.055410    0.055879    0.088280
     0.125484    0.143185    0.144003    0.159025    0.167096    0.186393
     0.196978    0.202018    0.204227    0.224297    0.332279    0.340227
     0.342030    0.342376    0.342678    0.342769    0.342784    0.342803
     0.342880    0.342998    0.344064    0.375129    0.433055    0.445511

 Minimum Search - Taking Simple RFO Step
 Searching for Lamda that Minimizes Along All modes
 Value Taken    Lamda =  -0.00002459
 Step Taken.  Stepsize is  0.034416

                             Maximum     Tolerance    Cnvgd?
         Gradient           0.000957      0.000020      NO
         Displacement       0.014907      0.000120      NO
         Energy change     -0.000159      0.000000      NO


 New Cartesian Coordinates Obtained by Inverse Iteration

 Displacement from previous Coordinates is:  0.051095
 ----------------------------------------------------------------
             Standard Nuclear Orientation (Angstroms)
    I     Atom           X                Y                Z
 ----------------------------------------------------------------
    1      C       0.5997028286     0.9223262039     1.6307369013
    2      Si      0.4119119525     0.0023977436     0.0067350680
    3      C       1.8411969497     0.4054459701    -1.1477493826
    4      C       0.3560877899    -1.8522982293     0.3224800189
    5      C      -1.2131006041     0.5253014297    -0.8149509562
    6      N      -2.3582864064     0.0871319766     0.0102925117
    7      H      -0.2859750448     0.7683958596     2.2547085481
    8      H       1.4776080218     0.5787971831     2.1881808785
    9      H       0.7096388824     1.9991747131     1.4636260026
   10      H       1.7569581992    -0.1399386630    -2.0937616646
   11      H       2.8007604387     0.1360719270    -0.6935481404
   12      H       1.8747163424     1.4753202258    -1.3802332617
   13      H       0.1795912699    -2.4119547198    -0.6027773674
   14      H      -0.4355265792    -2.1112389723     1.0335498458
   15      H       1.3030083102    -2.2046187325     0.7455052760
   16      H      -1.2562374475     0.1733980267    -1.8586735765
   17      H      -1.2316281076     1.6212201013    -0.8564067761
   18      H      -3.2315087942     0.4323092396    -0.3767782773
   19      H      -2.4250346916    -0.9257817972     0.0056476572
 ----------------------------------------------------------------
 Molecular Point Group                 C1    NOp =  1
 Largest Abelian Subgroup              C1    NOp =  1
 Nuclear Repulsion Energy =   321.7915113765 hartrees
 There are       29 alpha and       29 beta electrons
 Applying Cartesian multipole field
    Component          Value
    ---------          -----
     (2,0,0)        1.00000E-11
     (0,2,0)        2.00000E-11
     (0,0,2)       -3.00000E-11
 Nucleus-field energy     =     0.0000000021 hartrees
 Requested basis set is 6-311+G(d,p)
 There are 95 shells and 218 basis functions
 A cutoff of  1.0D-11 yielded   4182 shell pairs
 There are     22609 function pairs (     23925 Cartesian)
 Smallest overlap matrix eigenvalue = 1.23E-04
 Guess MOs from SCF MO coefficient file
 Reading MOs from coefficient file
 Reading MOs from coefficient file

 -----------------------------------------------------------------------
  General SCF calculation program by
  Eric Jon Sundstrom, Paul Horn, Yuezhi Mao, Dmitri Zuev, Alec White,
  David Stuck, Shaama M.S., Shane Yost, Joonho Lee, David Small,
  Daniel Levine, Susi Lehtola, Hugh Burton, Evgeny Epifanovsky
 -----------------------------------------------------------------------
 Hartree-Fock
 using 4 threads for integral computing
 -------------------------------------------------------
 OpenMP Integral computing Module                
 Release: version 1.0, May 2013, Q-Chem Inc. Pittsburgh 
 -------------------------------------------------------
 A restricted SCF calculation will be
 performed using DIIS
 SCF converges when DIIS error is below 1.0e-08
 ---------------------------------------
  Cycle       Energy         DIIS error
 ---------------------------------------
    1    -502.5155219998      1.24e-04  
    2    -502.5141886448      2.33e-05  
    3    -502.5141949663      7.53e-06  
    4    -502.5141957525      3.31e-06  
    5    -502.5141958502      7.98e-07  
    6    -502.5141958628      1.99e-07  
    7    -502.5141958637      5.91e-08  
    8    -502.5141958637      1.39e-08  
    9    -502.5141958637      3.22e-09  Convergence criterion met
 ---------------------------------------
 SCF time:   CPU 32.93s  wall 8.00s 
 SCF   energy in the final basis set =     -502.5141958637
 Total energy in the final basis set =     -502.5141958637
 
 Components of the MP2 correlation energy:
        aaaa  correlation energy =        -0.1035081009 au
        abab  correlation energy =        -0.7031372035 au
        bbbb  correlation energy =        -0.1035081009 au
        non-Brillouin singles    =        -0.0000000000 au

 Total  MP2   correlation energy =                    -0.91015341 au
        MP2         total energy =                  -503.42434927 au
  Entering Z-vector solver.
   1         0           1      0.000174    0.000174
   2         0           1      0.000050    0.000050
   3         0           1      0.000010    0.000010
   4         0           1      0.000004    0.000004
   5         1           0      0.000000    0.000000    Roots Converged
 
 --------------------------------------------------------------
 
                    Orbital Energies (a.u.)
 --------------------------------------------------------------
 
 Alpha MOs
 -- Occupied --
-68.747 -15.540 -11.226 -11.196 -11.196 -11.189  -6.094  -4.201
 -4.201  -4.201  -1.164  -0.965  -0.921  -0.916  -0.878  -0.665
 -0.614  -0.602  -0.567  -0.559  -0.553  -0.540  -0.535  -0.526
 -0.524  -0.431  -0.426  -0.421  -0.377
 -- Virtual --
  0.053   0.069   0.072   0.076   0.107   0.115   0.116   0.124
  0.131   0.149   0.151   0.153   0.157   0.175   0.179   0.187
  0.189   0.191   0.195   0.218   0.226   0.238   0.255   0.269
  0.275   0.282   0.286   0.295   0.309   0.317   0.320   0.330
  0.350   0.364   0.371   0.375   0.396   0.398   0.405   0.416
  0.439   0.477   0.481   0.485   0.494   0.502   0.548   0.634
  0.637   0.654   0.675   0.677   0.694   0.701   0.707   0.718
  0.735   0.766   0.796   0.844   0.849   0.860   0.874   0.884
  0.896   0.905   0.916   0.933   0.934   0.943   0.953   0.980
  0.996   1.048   1.055   1.092   1.114   1.116   1.127   1.148
  1.170   1.184   1.231   1.300   1.305   1.338   1.403   1.422
  1.451   1.487   1.492   1.524   1.643   1.718   1.728   1.737
  1.739   1.758   1.771   1.785   1.831   1.840   1.851   1.855
  1.877   1.882   1.895   1.899   1.939   1.942   1.981   1.998
  2.008   2.018   2.034   2.053   2.082   2.090   2.105   2.113
  2.149   2.175   2.269   2.302   2.334   2.368   2.372   2.468
  2.482   2.494   2.507   2.535   2.558   2.570   2.573   2.749
  2.781   2.794   2.795   2.812   2.819   2.833   2.881   2.894
  2.898   2.906   2.916   2.927   2.943   2.948   2.957   2.968
  2.975   2.985   3.006   3.033   3.068   3.138   3.173   3.230
  3.281   3.295   3.359   3.493   3.551   3.692   3.716   3.732
  3.934   4.134   4.141   4.147   4.155   4.186   4.190   4.197
  4.614   5.218   5.282   6.324  12.434  12.447  12.461  25.007
 25.117  25.123  25.142  37.021 144.079
 --------------------------------------------------------------
 
          Ground-State Mulliken Net Atomic Charges

     Atom                 Charge (a.u.)
  ----------------------------------------
      1 C                    -0.785448
      2 Si                    1.165142
      3 C                    -0.763819
      4 C                    -0.812698
      5 C                    -0.621083
      6 N                    -0.453785
      7 H                     0.189280
      8 H                     0.161975
      9 H                     0.162917
     10 H                     0.162547
     11 H                     0.165484
     12 H                     0.163155
     13 H                     0.169800
     14 H                     0.166578
     15 H                     0.168383
     16 H                     0.143567
     17 H                     0.161205
     18 H                     0.232014
     19 H                     0.224787
  ----------------------------------------
  Sum of atomic charges =     0.000000

 -----------------------------------------------------------------
                    Cartesian Multipole Moments
 -----------------------------------------------------------------
    Charge (ESU x 10^10)
                 0.0000
    Dipole Moment (Debye)
         X      -0.1622      Y      -0.4030      Z      -1.1475
       Tot       1.2270
    Quadrupole Moments (Debye-Ang)
        XX     -47.2751     XY       0.8090     YY     -48.4395
        XZ       3.4668     YZ      -0.8630     ZZ     -50.8456
    Octopole Moments (Debye-Ang^2)
       XXX     -17.9074    XXY      -3.8616    XYY      -4.8947
       YYY       6.0132    XXZ      -4.3704    XYZ       1.6182
       YYZ      -2.6588    XZZ      -1.1062    YZZ      -3.7872
       ZZZ      -2.9067
    Hexadecapole Moments (Debye-Ang^3)
      XXXX    -554.0870   XXXY      -5.1618   XXYY    -150.9880
      XYYY       4.8556   YYYY    -345.8782   XXXZ      35.2853
      XXYZ      -6.4947   XYYZ       0.1649   YYYZ      -0.2281
      XXZZ    -168.2923   XYZZ      -1.8832   YYZZ    -115.4144
      XZZZ       1.9903   YZZZ      -1.6447   ZZZZ    -347.1732
 -----------------------------------------------------------------
 DrvMan is completing analytic gradient of the MP2 energy
 MP2 relaxed dipole moment
            1
    1  -0.0638324
    2  -0.1585475
    3  -0.4514725
	Magnitude:	 0.483 au	 1.227 Debye
 MP2 energy read as -503.424349
 Full Analytical Gradient of MP2 Energy (in au.)
             1             2             3             4             5
    1   -0.00002565    0.00002436    0.00001807   -0.00001829    0.00046695
    2    0.00002706   -0.00009204   -0.00007253    0.00008116    0.00007396
    3   -0.00009187    0.00012452    0.00015904   -0.00000042   -0.00054220
             6             7             8             9            10
    1   -0.00013265   -0.00005881    0.00000427    0.00001397   -0.00004816
    2   -0.00013070   -0.00005663   -0.00002764    0.00001772   -0.00002931
    3    0.00030966   -0.00002303   -0.00002706   -0.00004892   -0.00001426
            11            12            13            14            15
    1   -0.00001169   -0.00002270    0.00000931   -0.00002126    0.00003566
    2   -0.00001349    0.00004235    0.00001293    0.00006318    0.00004441
    3    0.00002382    0.00001419   -0.00004744   -0.00000181   -0.00001729
            16            17            18            19
    1   -0.00017345   -0.00013271    0.00008083   -0.00000809
    2    0.00003611   -0.00006037   -0.00001548    0.00009930
    3    0.00019019    0.00006544    0.00003124   -0.00010379
 Gradient time:  CPU 0.14 s  wall 0.09 s
 Geometry Optimization Parameters
   NAtoms,    NIC,     NZ,  NCons,   NDum,   NFix, NCnnct, MaxDiis
       19     131       0       0       0       0       0       0

 Cartesian Hessian Update
 Hessian Updated using BFGS Update


** GEOMETRY OPTIMIZATION IN DELOCALIZED INTERNAL COORDINATES **
   Searching for a Minimum

   Optimization Cycle:   3

                       Coordinates (Angstroms)
     ATOM                X               Y               Z
      1  C         0.5997028286    0.9223262039    1.6307369013
      2  Si        0.4119119525    0.0023977436    0.0067350680
      3  C         1.8411969497    0.4054459701   -1.1477493826
      4  C         0.3560877899   -1.8522982293    0.3224800189
      5  C        -1.2131006041    0.5253014297   -0.8149509562
      6  N        -2.3582864064    0.0871319766    0.0102925117
      7  H        -0.2859750448    0.7683958596    2.2547085481
      8  H         1.4776080218    0.5787971831    2.1881808785
      9  H         0.7096388824    1.9991747131    1.4636260026
     10  H         1.7569581992   -0.1399386630   -2.0937616646
     11  H         2.8007604387    0.1360719270   -0.6935481404
     12  H         1.8747163424    1.4753202258   -1.3802332617
     13  H         0.1795912699   -2.4119547198   -0.6027773674
     14  H        -0.4355265792   -2.1112389723    1.0335498458
     15  H         1.3030083102   -2.2046187325    0.7455052760
     16  H        -1.2562374475    0.1733980267   -1.8586735765
     17  H        -1.2316281076    1.6212201013   -0.8564067761
     18  H        -3.2315087942    0.4323092396   -0.3767782773
     19  H        -2.4250346916   -0.9257817972    0.0056476572
   Point Group: c1    Number of degrees of freedom:    51


   Energy is   -503.424349269

 Hessian Updated using BFGS Update

 43 Hessian modes will be used to form the next step
  Hessian Eigenvalues:
     0.002001    0.002398    0.002442    0.003269    0.004441    0.037020
     0.042128    0.045735    0.048019    0.048606    0.053452    0.053572
     0.054040    0.054116    0.054310    0.055819    0.056603    0.091681
     0.121273    0.136425    0.143931    0.155952    0.160261    0.172816
     0.187823    0.197456    0.202053    0.204012    0.212735    0.332906
     0.340153    0.342287    0.342612    0.342728    0.342783    0.342796
     0.342856    0.342982    0.343067    0.344279    0.373609    0.444069
     0.456017

 Minimum Search - Taking Simple RFO Step
 Searching for Lamda that Minimizes Along All modes
 Value Taken    Lamda =  -0.00000878
 Step Taken.  Stepsize is  0.029850

                             Maximum     Tolerance    Cnvgd?
         Gradient           0.000472      0.000020      NO
         Displacement       0.014721      0.000120      NO
         Energy change     -0.000015      0.000000      NO


 New Cartesian Coordinates Obtained by Inverse Iteration

 Displacement from previous Coordinates is:  0.039697
 ----------------------------------------------------------------
             Standard Nuclear Orientation (Angstroms)
    I     Atom           X                Y                Z
 ----------------------------------------------------------------
    1      C       0.6014222409     0.9211787629     1.6329345565
    2      Si      0.4115142064     0.0023017731     0.0081271389
    3      C       1.8388327902     0.4066128820    -1.1486001277
    4      C       0.3560121216    -1.8530209793     0.3231261600
    5      C      -1.2131272560     0.5255321417    -0.8142209530
    6      N      -2.3619480991     0.0906549883     0.0061063649
    7      H      -0.2826623306     0.7670009942     2.2589636667
    8      H       1.4804958716     0.5778853260     2.1887765137
    9      H       0.7106573685     1.9982287544     1.4668788123
   10      H       1.7555857409    -0.1404597510    -2.0936616147
   11      H       2.7994483821     0.1402579409    -0.6948115639
   12      H       1.8701316730     1.4760565278    -1.3830625231
   13      H       0.1779348497    -2.4124491603    -0.6019021630
   14      H      -0.4342340925    -2.1130085277     1.0353538288
   15      H       1.3033632366    -2.2061005498     0.7446155012
   16      H      -1.2517207758     0.1720072813    -1.8579428739
   17      H      -1.2293688749     1.6214646332    -0.8580154988
   18      H      -3.2337681603     0.4296584785    -0.3890008043
   19      H      -2.4246855823    -0.9223420306     0.0129188847
 ----------------------------------------------------------------
 Molecular Point Group                 C1    NOp =  1
 Largest Abelian Subgroup              C1    NOp =  1
 Nuclear Repulsion Energy =   321.7162407884 hartrees
 There are       29 alpha and       29 beta electrons
 Applying Cartesian multipole field
    Component          Value
    ---------          -----
     (2,0,0)        1.00000E-11
     (0,2,0)        2.00000E-11
     (0,0,2)       -3.00000E-11
 Nucleus-field energy     =     0.0000000021 hartrees
 Requested basis set is 6-311+G(d,p)
 There are 95 shells and 218 basis functions
 A cutoff of  1.0D-11 yielded   4183 shell pairs
 There are     22599 function pairs (     23915 Cartesian)
 Smallest overlap matrix eigenvalue = 1.23E-04
 Guess MOs from SCF MO coefficient file
 Reading MOs from coefficient file
 Reading MOs from coefficient file

 -----------------------------------------------------------------------
  General SCF calculation program by
  Eric Jon Sundstrom, Paul Horn, Yuezhi Mao, Dmitri Zuev, Alec White,
  David Stuck, Shaama M.S., Shane Yost, Joonho Lee, David Small,
  Daniel Levine, Susi Lehtola, Hugh Burton, Evgeny Epifanovsky
 -----------------------------------------------------------------------
 Hartree-Fock
 using 4 threads for integral computing
 -------------------------------------------------------
 OpenMP Integral computing Module                
 Release: version 1.0, May 2013, Q-Chem Inc. Pittsburgh 
 -------------------------------------------------------
 A restricted SCF calculation will be
 performed using DIIS
 SCF converges when DIIS error is below 1.0e-08
 ---------------------------------------
  Cycle       Energy         DIIS error
 ---------------------------------------
    1    -502.5147098768      9.46e-05  
    2    -502.5142454740      1.95e-05  
    3    -502.5142497345      7.03e-06  
    4    -502.5142502902      3.35e-06  
    5    -502.5142504050      6.66e-07  
    6    -502.5142504144      1.76e-07  
    7    -502.5142504150      5.79e-08  
    8    -502.5142504151      1.40e-08  
    9    -502.5142504151      3.07e-09  Convergence criterion met
 ---------------------------------------
 SCF time:   CPU 33.23s  wall 8.00s 
 SCF   energy in the final basis set =     -502.5142504151
 Total energy in the final basis set =     -502.5142504151
 
 Components of the MP2 correlation energy:
        aaaa  correlation energy =        -0.1035004564 au
        abab  correlation energy =        -0.7031034661 au
        bbbb  correlation energy =        -0.1035004564 au
        non-Brillouin singles    =        -0.0000000000 au

 Total  MP2   correlation energy =                    -0.91010438 au
        MP2         total energy =                  -503.42435479 au
  Entering Z-vector solver.
   1         0           1      0.000174    0.000174
   2         0           1      0.000050    0.000050
   3         0           1      0.000010    0.000010
   4         0           1      0.000004    0.000004
   5         1           0      0.000000    0.000000    Roots Converged
 
 --------------------------------------------------------------
 
                    Orbital Energies (a.u.)
 --------------------------------------------------------------
 
 Alpha MOs
 -- Occupied --
-68.747 -15.540 -11.226 -11.196 -11.196 -11.190  -6.094  -4.201
 -4.201  -4.201  -1.164  -0.965  -0.921  -0.916  -0.877  -0.665
 -0.614  -0.602  -0.567  -0.559  -0.553  -0.540  -0.535  -0.526
 -0.524  -0.431  -0.426  -0.421  -0.377
 -- Virtual --
  0.053   0.069   0.072   0.076   0.107   0.115   0.116   0.124
  0.131   0.149   0.151   0.153   0.157   0.175   0.179   0.187
  0.189   0.191   0.195   0.218   0.225   0.238   0.255   0.268
  0.275   0.282   0.286   0.295   0.309   0.317   0.320   0.330
  0.350   0.364   0.371   0.374   0.396   0.398   0.405   0.416
  0.438   0.477   0.481   0.485   0.493   0.501   0.549   0.634
  0.637   0.654   0.675   0.677   0.695   0.701   0.707   0.718
  0.735   0.766   0.796   0.844   0.849   0.860   0.873   0.884
  0.895   0.905   0.916   0.933   0.934   0.942   0.953   0.980
  0.996   1.048   1.055   1.091   1.114   1.116   1.127   1.148
  1.169   1.183   1.230   1.300   1.305   1.339   1.403   1.421
  1.451   1.487   1.492   1.523   1.644   1.718   1.729   1.737
  1.739   1.758   1.770   1.785   1.830   1.841   1.851   1.855
  1.877   1.882   1.895   1.899   1.938   1.942   1.981   1.998
  2.008   2.018   2.034   2.052   2.081   2.090   2.105   2.112
  2.149   2.175   2.269   2.303   2.334   2.368   2.373   2.468
  2.482   2.494   2.507   2.535   2.558   2.570   2.572   2.749
  2.781   2.794   2.795   2.811   2.818   2.833   2.881   2.894
  2.898   2.906   2.916   2.927   2.944   2.948   2.957   2.968
  2.974   2.985   3.006   3.033   3.068   3.138   3.174   3.230
  3.280   3.294   3.360   3.493   3.550   3.692   3.716   3.732
  3.934   4.133   4.141   4.147   4.155   4.186   4.189   4.197
  4.613   5.220   5.283   6.323  12.433  12.446  12.461  25.007
 25.117  25.123  25.142  37.021 144.079
 --------------------------------------------------------------
 
          Ground-State Mulliken Net Atomic Charges

     Atom                 Charge (a.u.)
  ----------------------------------------
      1 C                    -0.783943
      2 Si                    1.161936
      3 C                    -0.764202
      4 C                    -0.812103
      5 C                    -0.619413
      6 N                    -0.452761
      7 H                     0.188806
      8 H                     0.161948
      9 H                     0.163006
     10 H                     0.162654
     11 H                     0.165512
     12 H                     0.163270
     13 H                     0.169817
     14 H                     0.166266
     15 H                     0.168466
     16 H                     0.143140
     17 H                     0.161112
     18 H                     0.231838
     19 H                     0.224650
  ----------------------------------------
  Sum of atomic charges =     0.000000

 -----------------------------------------------------------------
                    Cartesian Multipole Moments
 -----------------------------------------------------------------
    Charge (ESU x 10^10)
                 0.0000
    Dipole Moment (Debye)
         X      -0.1455      Y      -0.4152      Z      -1.1404
       Tot       1.2223
    Quadrupole Moments (Debye-Ang)
        XX     -47.3188     XY       0.8488     YY     -48.4511
        XZ       3.4663     YZ      -0.8876     ZZ     -50.8222
    Octopole Moments (Debye-Ang^2)
       XXX     -17.6423    XXY      -3.9758    XYY      -4.8061
       YYY       5.9553    XXZ      -4.4824    XYZ       1.6982
       YYZ      -2.6514    XZZ      -1.1243    YZZ      -3.7864
       ZZZ      -2.8919
    Hexadecapole Moments (Debye-Ang^3)
      XXXX    -554.5805   XXXY      -4.7471   XXYY    -151.2190
      XYYY       4.9430   YYYY    -345.9338   XXXZ      35.3422
      XXYZ      -6.6911   XYYZ       0.0575   YYYZ      -0.1576
      XXZZ    -168.2435   XYZZ      -1.8504   YYZZ    -115.4750
      XZZZ       1.5767   YZZZ      -1.5390   ZZZZ    -347.6616
 -----------------------------------------------------------------
 DrvMan is completing analytic gradient of the MP2 energy
 MP2 relaxed dipole moment
            1
    1  -0.0572503
    2  -0.1633661
    3  -0.4486632
	Magnitude:	 0.481 au	 1.222 Debye
 MP2 energy read as -503.424355
 Full Analytical Gradient of MP2 Energy (in au.)
             1             2             3             4             5
    1   -0.00010549    0.00011766   -0.00006093   -0.00006319    0.00020069
    2    0.00003359   -0.00003504   -0.00001748    0.00002666    0.00006143
    3   -0.00004177   -0.00000700    0.00006260   -0.00002909   -0.00012870
             6             7             8             9            10
    1   -0.00023855    0.00001707    0.00001617    0.00001297    0.00001452
    2   -0.00019317   -0.00000038    0.00000337   -0.00000310    0.00000374
    3   -0.00009349   -0.00001355    0.00001126    0.00000989   -0.00000268
            11            12            13            14            15
    1   -0.00001053    0.00001778    0.00001029    0.00001940    0.00001432
    2   -0.00000519   -0.00000853   -0.00000878    0.00000203   -0.00000456
    3    0.00000692   -0.00000669    0.00000915   -0.00000975   -0.00000016
            16            17            18            19
    1   -0.00010061   -0.00009350    0.00016899    0.00006295
    2   -0.00000695   -0.00003990    0.00004521    0.00014704
    3    0.00007597    0.00005164    0.00007893    0.00002653
 Gradient time:  CPU 0.13 s  wall 0.09 s
 Geometry Optimization Parameters
   NAtoms,    NIC,     NZ,  NCons,   NDum,   NFix, NCnnct, MaxDiis
       19     131       0       0       0       0       0       0

 Cartesian Hessian Update
 Hessian Updated using BFGS Update


** GEOMETRY OPTIMIZATION IN DELOCALIZED INTERNAL COORDINATES **
   Searching for a Minimum

   Optimization Cycle:   4

                       Coordinates (Angstroms)
     ATOM                X               Y               Z
      1  C         0.6014222409    0.9211787629    1.6329345565
      2  Si        0.4115142064    0.0023017731    0.0081271389
      3  C         1.8388327902    0.4066128820   -1.1486001277
      4  C         0.3560121216   -1.8530209793    0.3231261600
      5  C        -1.2131272560    0.5255321417   -0.8142209530
      6  N        -2.3619480991    0.0906549883    0.0061063649
      7  H        -0.2826623306    0.7670009942    2.2589636667
      8  H         1.4804958716    0.5778853260    2.1887765137
      9  H         0.7106573685    1.9982287544    1.4668788123
     10  H         1.7555857409   -0.1404597510   -2.0936616147
     11  H         2.7994483821    0.1402579409   -0.6948115639
     12  H         1.8701316730    1.4760565278   -1.3830625231
     13  H         0.1779348497   -2.4124491603   -0.6019021630
     14  H        -0.4342340925   -2.1130085277    1.0353538288
     15  H         1.3033632366   -2.2061005498    0.7446155012
     16  H        -1.2517207758    0.1720072813   -1.8579428739
     17  H        -1.2293688749    1.6214646332   -0.8580154988
     18  H        -3.2337681603    0.4296584785   -0.3890008043
     19  H        -2.4246855823   -0.9223420306    0.0129188847
   Point Group: c1    Number of degrees of freedom:    51


   Energy is   -503.424354794

 Hessian Updated using BFGS Update

 44 Hessian modes will be used to form the next step
  Hessian Eigenvalues:
     0.001978    0.002371    0.002442    0.003250    0.003816    0.038952
     0.042149    0.045799    0.046603    0.048074    0.053450    0.053601
     0.053909    0.054081    0.054231    0.054459    0.055910    0.083219
     0.119161    0.133218    0.143909    0.158604    0.159970    0.163001
     0.171586    0.189921    0.197856    0.201825    0.203435    0.213659
     0.331491    0.339856    0.342317    0.342646    0.342727    0.342785
     0.342788    0.342871    0.342875    0.343234    0.344936    0.374260
     0.443872    0.454405

 Minimum Search - Taking Simple RFO Step
 Searching for Lamda that Minimizes Along All modes
 Value Taken    Lamda =  -0.00000203
 Step Taken.  Stepsize is  0.015700

                             Maximum     Tolerance    Cnvgd?
         Gradient           0.000169      0.000020      NO
         Displacement       0.007280      0.000120      NO
         Energy change     -0.000006      0.000000      NO


 New Cartesian Coordinates Obtained by Inverse Iteration

 Displacement from previous Coordinates is:  0.022529
 ----------------------------------------------------------------
             Standard Nuclear Orientation (Angstroms)
    I     Atom           X                Y                Z
 ----------------------------------------------------------------
    1      C       0.6025847872     0.9202739178     1.6342223834
    2      Si      0.4110254315     0.0023098282     0.0090002231
    3      C       1.8373769302     0.4073333304    -1.1489269734
    4      C       0.3560153133    -1.8531788658     0.3236982597
    5      C      -1.2131942909     0.5255758872    -0.8141202853
    6      N      -2.3637189356     0.0930159383     0.0043547087
    7      H      -0.2806608292     0.7657431896     2.2614006803
    8      H       1.4823566043     0.5768261995     2.1888306347
    9      H       0.7113659402     1.9974537602     1.4686719539
   10      H       1.7540131074    -0.1403393651    -2.0936205800
   11      H       2.7986536108     0.1423043927    -0.6957243936
   12      H       1.8673181393     1.4766871991    -1.3839957059
   13      H       0.1775011388    -2.4123807262    -0.6013859765
   14      H      -0.4339071189    -2.1135797106     1.0362013286
   15      H       1.3035118212    -2.2063475024     0.7447543588
   16      H      -1.2491526913     0.1706693289    -1.8576684458
   17      H      -1.2275579388     1.6215193958    -0.8599988738
   18      H      -3.2351214360     0.4277321229    -0.3956303721
   19      H      -2.4245262735    -0.9201588348     0.0165203806
 ----------------------------------------------------------------
 Molecular Point Group                 C1    NOp =  1
 Largest Abelian Subgroup              C1    NOp =  1
 Nuclear Repulsion Energy =   321.6871702392 hartrees
 There are       29 alpha and       29 beta electrons
 Applying Cartesian multipole field
    Component          Value
    ---------          -----
     (2,0,0)        1.00000E-11
     (0,2,0)        2.00000E-11
     (0,0,2)       -3.00000E-11
 Nucleus-field energy     =     0.0000000021 hartrees
 Requested basis set is 6-311+G(d,p)
 There are 95 shells and 218 basis functions
 A cutoff of  1.0D-11 yielded   4183 shell pairs
 There are     22599 function pairs (     23915 Cartesian)
 Smallest overlap matrix eigenvalue = 1.23E-04
 Guess MOs from SCF MO coefficient file
 Reading MOs from coefficient file
 Reading MOs from coefficient file

 -----------------------------------------------------------------------
  General SCF calculation program by
  Eric Jon Sundstrom, Paul Horn, Yuezhi Mao, Dmitri Zuev, Alec White,
  David Stuck, Shaama M.S., Shane Yost, Joonho Lee, David Small,
  Daniel Levine, Susi Lehtola, Hugh Burton, Evgeny Epifanovsky
 -----------------------------------------------------------------------
 Hartree-Fock
 using 4 threads for integral computing
 -------------------------------------------------------
 OpenMP Integral computing Module                
 Release: version 1.0, May 2013, Q-Chem Inc. Pittsburgh 
 -------------------------------------------------------
 A restricted SCF calculation will be
 performed using DIIS
 SCF converges when DIIS error is below 1.0e-08
 ---------------------------------------
  Cycle       Energy         DIIS error
 ---------------------------------------
    1    -502.5140800971      4.90e-05  
    2    -502.5142539484      1.03e-05  
    3    -502.5142551948      3.14e-06  
    4    -502.5142553462      1.27e-06  
    5    -502.5142553634      3.57e-07  
    6    -502.5142553657      9.20e-08  
    7    -502.5142553659      3.16e-08  
    8    -502.5142553659      7.52e-09  Convergence criterion met
 ---------------------------------------
 SCF time:   CPU 29.28s  wall 7.00s 
 SCF   energy in the final basis set =     -502.5142553659
 Total energy in the final basis set =     -502.5142553659
 
 Components of the MP2 correlation energy:
        aaaa  correlation energy =        -0.1034991328 au
        abab  correlation energy =        -0.7031023736 au
        bbbb  correlation energy =        -0.1034991328 au
        non-Brillouin singles    =        -0.0000000000 au

 Total  MP2   correlation energy =                    -0.91010064 au
        MP2         total energy =                  -503.42435601 au
  Entering Z-vector solver.
   1         0           1      0.000174    0.000174
   2         0           1      0.000050    0.000050
   3         0           1      0.000010    0.000010
   4         0           1      0.000004    0.000004
   5         1           0      0.000000    0.000000    Roots Converged
 
 --------------------------------------------------------------
 
                    Orbital Energies (a.u.)
 --------------------------------------------------------------
 
 Alpha MOs
 -- Occupied --
-68.747 -15.540 -11.226 -11.196 -11.196 -11.190  -6.094  -4.201
 -4.201  -4.201  -1.164  -0.965  -0.921  -0.917  -0.878  -0.665
 -0.614  -0.602  -0.567  -0.559  -0.553  -0.540  -0.535  -0.527
 -0.524  -0.431  -0.426  -0.421  -0.377
 -- Virtual --
  0.053   0.069   0.072   0.076   0.107   0.115   0.116   0.124
  0.131   0.149   0.151   0.153   0.157   0.175   0.179   0.187
  0.189   0.192   0.195   0.218   0.225   0.238   0.255   0.268
  0.275   0.282   0.286   0.295   0.309   0.317   0.320   0.330
  0.350   0.364   0.371   0.374   0.396   0.398   0.405   0.416
  0.438   0.477   0.481   0.485   0.493   0.501   0.549   0.634
  0.637   0.653   0.675   0.677   0.695   0.701   0.707   0.718
  0.735   0.766   0.796   0.844   0.849   0.860   0.873   0.884
  0.895   0.905   0.916   0.933   0.934   0.942   0.953   0.980
  0.996   1.048   1.055   1.091   1.114   1.116   1.127   1.148
  1.169   1.183   1.230   1.300   1.305   1.339   1.403   1.421
  1.451   1.487   1.492   1.523   1.645   1.718   1.729   1.737
  1.739   1.758   1.770   1.785   1.830   1.841   1.851   1.855
  1.877   1.882   1.895   1.899   1.938   1.942   1.980   1.998
  2.008   2.018   2.034   2.052   2.081   2.090   2.104   2.112
  2.149   2.175   2.268   2.303   2.334   2.368   2.373   2.468
  2.482   2.494   2.507   2.535   2.559   2.570   2.572   2.749
  2.780   2.793   2.795   2.811   2.818   2.833   2.881   2.894
  2.898   2.906   2.916   2.927   2.944   2.948   2.957   2.968
  2.974   2.985   3.006   3.033   3.069   3.138   3.174   3.230
  3.280   3.294   3.360   3.493   3.550   3.692   3.716   3.732
  3.935   4.133   4.141   4.147   4.154   4.186   4.189   4.197
  4.613   5.219   5.284   6.323  12.433  12.446  12.460  25.007
 25.116  25.123  25.142  37.021 144.078
 --------------------------------------------------------------
 
          Ground-State Mulliken Net Atomic Charges

     Atom                 Charge (a.u.)
  ----------------------------------------
      1 C                    -0.782963
      2 Si                    1.159967
      3 C                    -0.764391
      4 C                    -0.811683
      5 C                    -0.618744
      6 N                    -0.451936
      7 H                     0.188535
      8 H                     0.161953
      9 H                     0.163049
     10 H                     0.162678
     11 H                     0.165534
     12 H                     0.163300
     13 H                     0.169802
     14 H                     0.166094
     15 H                     0.168528
     16 H                     0.142945
     17 H                     0.161113
     18 H                     0.231713
     19 H                     0.224506
  ----------------------------------------
  Sum of atomic charges =     0.000000

 -----------------------------------------------------------------
                    Cartesian Multipole Moments
 -----------------------------------------------------------------
    Charge (ESU x 10^10)
                 0.0000
    Dipole Moment (Debye)
         X      -0.1391      Y      -0.4227      Z      -1.1381
       Tot       1.2220
    Quadrupole Moments (Debye-Ang)
        XX     -47.3419     XY       0.8744     YY     -48.4629
        XZ       3.4731     YZ      -0.9003     ZZ     -50.8103
    Octopole Moments (Debye-Ang^2)
       XXX     -17.5086    XXY      -4.0615    XYY      -4.7497
       YYY       5.9258    XXZ      -4.5501    XYZ       1.7393
       YYZ      -2.6561    XZZ      -1.1412    YZZ      -3.7933
       ZZZ      -2.9009
    Hexadecapole Moments (Debye-Ang^3)
      XXXX    -554.7539   XXXY      -4.4685   XXYY    -151.3455
      XYYY       4.9986   YYYY    -345.9169   XXXZ      35.4016
      XXYZ      -6.7768   XYYZ       0.0011   YYYZ      -0.0933
      XXZZ    -168.2170   XYZZ      -1.8355   YYZZ    -115.5078
      XZZZ       1.3572   YZZZ      -1.4665   ZZZZ    -347.9738
 -----------------------------------------------------------------
 DrvMan is completing analytic gradient of the MP2 energy
 MP2 relaxed dipole moment
            1
    1  -0.0547182
    2  -0.1663173
    3  -0.4477584
	Magnitude:	 0.481 au	 1.222 Debye
 MP2 energy read as -503.424356
 Full Analytical Gradient of MP2 Energy (in au.)
             1             2             3             4             5
    1   -0.00004054    0.00004669   -0.00004612   -0.00002162   -0.00001691
    2    0.00000213   -0.00000618   -0.00000170    0.00001786   -0.00000449
    3   -0.00001587   -0.00002423    0.00000933   -0.00002002    0.00004380
             6             7             8             9            10
    1   -0.00007215    0.00000877    0.00000602    0.00000857    0.00001823
    2   -0.00006897    0.00000249    0.00001369    0.00000087    0.00000556
    3   -0.00009109   -0.00000275    0.00001978    0.00000642    0.00000059
            11            12            13            14            15
    1    0.00000425    0.00001710    0.00000441    0.00000940    0.00000419
    2   -0.00000405   -0.00000842   -0.00000698   -0.00000699   -0.00001456
    3    0.00000812   -0.00000754    0.00000687   -0.00000051    0.00000318
            16            17            18            19
    1   -0.00001264   -0.00001996    0.00006429    0.00003801
    2   -0.00000049   -0.00001009    0.00002579    0.00006454
    3   -0.00000758    0.00001243    0.00003423    0.00002483
 Gradient time:  CPU 0.13 s  wall 0.09 s
 Geometry Optimization Parameters
   NAtoms,    NIC,     NZ,  NCons,   NDum,   NFix, NCnnct, MaxDiis
       19     131       0       0       0       0       0       0

 Cartesian Hessian Update
 Hessian Updated using BFGS Update


** GEOMETRY OPTIMIZATION IN DELOCALIZED INTERNAL COORDINATES **
   Searching for a Minimum

   Optimization Cycle:   5

                       Coordinates (Angstroms)
     ATOM                X               Y               Z
      1  C         0.6025847872    0.9202739178    1.6342223834
      2  Si        0.4110254315    0.0023098282    0.0090002231
      3  C         1.8373769302    0.4073333304   -1.1489269734
      4  C         0.3560153133   -1.8531788658    0.3236982597
      5  C        -1.2131942909    0.5255758872   -0.8141202853
      6  N        -2.3637189356    0.0930159383    0.0043547087
      7  H        -0.2806608292    0.7657431896    2.2614006803
      8  H         1.4823566043    0.5768261995    2.1888306347
      9  H         0.7113659402    1.9974537602    1.4686719539
     10  H         1.7540131074   -0.1403393651   -2.0936205800
     11  H         2.7986536108    0.1423043927   -0.6957243936
     12  H         1.8673181393    1.4766871991   -1.3839957059
     13  H         0.1775011388   -2.4123807262   -0.6013859765
     14  H        -0.4339071189   -2.1135797106    1.0362013286
     15  H         1.3035118212   -2.2063475024    0.7447543588
     16  H        -1.2491526913    0.1706693289   -1.8576684458
     17  H        -1.2275579388    1.6215193958   -0.8599988738
     18  H        -3.2351214360    0.4277321229   -0.3956303721
     19  H        -2.4245262735   -0.9201588348    0.0165203806
   Point Group: c1    Number of degrees of freedom:    51


   Energy is   -503.424356005

 Hessian Updated using BFGS Update

 45 Hessian modes will be used to form the next step
  Hessian Eigenvalues:
     0.001965    0.002398    0.002440    0.003218    0.003786    0.039317
     0.040050    0.043154    0.045832    0.048071    0.053344    0.053570
     0.054025    0.054107    0.054193    0.054427    0.055980    0.081049
     0.117874    0.131115    0.143852    0.158546    0.159271    0.160695
     0.161415    0.171133    0.189463    0.197678    0.201454    0.203414
     0.215227    0.333074    0.339948    0.342318    0.342543    0.342711
     0.342779    0.342826    0.342864    0.342883    0.343218    0.344826
     0.375233    0.436480    0.446968

 Minimum Search - Taking Simple RFO Step
 Searching for Lamda that Minimizes Along All modes
 Value Taken    Lamda =   0.00000000
 Step Taken.  Stepsize is  0.003647

                             Maximum     Tolerance    Cnvgd?
         Gradient           0.000056      0.000020      NO
         Displacement       0.001662      0.000120      NO
         Energy change     -0.000001      0.000000      NO


 New Cartesian Coordinates Obtained by Inverse Iteration

 Displacement from previous Coordinates is:  0.006534
 ----------------------------------------------------------------
             Standard Nuclear Orientation (Angstroms)
    I     Atom           X                Y                Z
 ----------------------------------------------------------------
    1      C       0.6030183484     0.9200031497     1.6346079465
    2      Si      0.4108722472     0.0023406204     0.0093051234
    3      C       1.8369448537     0.4075601035    -1.1489915411
    4      C       0.3559835513    -1.8531482605     0.3240376876
    5      C      -1.2131267665     0.5255861769    -0.8142024270
    6      N      -2.3640854216     0.0935694953     0.0039456416
    7      H      -0.2799049516     0.7652369834     2.2622087338
    8      H       1.4830957546     0.5763924999     2.1885903720
    9      H       0.7115728542     1.9972296558     1.4692314814
   10      H       1.7531158253    -0.1399832817    -2.0937242917
   11      H       2.7984455091     0.1425979298    -0.6962601402
   12      H       1.8665330456     1.4769729021    -1.3838774804
   13      H       0.1776242300    -2.4123223098    -0.6010970397
   14      H      -0.4340778320    -2.1135656396     1.0363988163
   15      H       1.3034381017    -2.2061697877     0.7452636189
   16      H      -1.2484990669     0.1701461848    -1.8575992382
   17      H      -1.2270274414     1.6215288921    -0.8607565619
   18      H      -3.2354076258     0.4271866610    -0.3973514352
   19      H      -2.4246319052    -0.9197024896     0.0168540393
 ----------------------------------------------------------------
 Molecular Point Group                 C1    NOp =  1
 Largest Abelian Subgroup              C1    NOp =  1
 Nuclear Repulsion Energy =   321.6820272235 hartrees
 There are       29 alpha and       29 beta electrons
 Applying Cartesian multipole field
    Component          Value
    ---------          -----
     (2,0,0)        1.00000E-11
     (0,2,0)        2.00000E-11
     (0,0,2)       -3.00000E-11
 Nucleus-field energy     =     0.0000000021 hartrees
 Requested basis set is 6-311+G(d,p)
 There are 95 shells and 218 basis functions
 A cutoff of  1.0D-11 yielded   4182 shell pairs
 There are     22595 function pairs (     23911 Cartesian)
 Smallest overlap matrix eigenvalue = 1.23E-04
 Guess MOs from SCF MO coefficient file
 Reading MOs from coefficient file
 Reading MOs from coefficient file

 -----------------------------------------------------------------------
  General SCF calculation program by
  Eric Jon Sundstrom, Paul Horn, Yuezhi Mao, Dmitri Zuev, Alec White,
  David Stuck, Shaama M.S., Shane Yost, Joonho Lee, David Small,
  Daniel Levine, Susi Lehtola, Hugh Burton, Evgeny Epifanovsky
 -----------------------------------------------------------------------
 Hartree-Fock
 using 4 threads for integral computing
 -------------------------------------------------------
 OpenMP Integral computing Module                
 Release: version 1.0, May 2013, Q-Chem Inc. Pittsburgh 
 -------------------------------------------------------
 A restricted SCF calculation will be
 performed using DIIS
 SCF converges when DIIS error is below 1.0e-08
 ---------------------------------------
  Cycle       Energy         DIIS error
 ---------------------------------------
    1    -502.5141385325      1.18e-05  
    2    -502.5142515777      2.50e-06  
    3    -502.5142516507      7.60e-07  
    4    -502.5142516590      3.15e-07  
    5    -502.5142516601      8.14e-08  
    6    -502.5142516602      2.46e-08  
    7    -502.5142516602      9.12e-09  Convergence criterion met
 ---------------------------------------
 SCF time:   CPU 25.72s  wall 6.00s 
 SCF   energy in the final basis set =     -502.5142516602
 Total energy in the final basis set =     -502.5142516602
 
 Components of the MP2 correlation energy:
        aaaa  correlation energy =        -0.1034991616 au
        abab  correlation energy =        -0.7031061774 au
        bbbb  correlation energy =        -0.1034991616 au
        non-Brillouin singles    =        -0.0000000000 au

 Total  MP2   correlation energy =                    -0.91010450 au
        MP2         total energy =                  -503.42435616 au
  Entering Z-vector solver.
   1         0           1      0.000174    0.000174
   2         0           1      0.000050    0.000050
   3         0           1      0.000010    0.000010
   4         0           1      0.000004    0.000004
   5         1           0      0.000000    0.000000    Roots Converged
 
 --------------------------------------------------------------
 
                    Orbital Energies (a.u.)
 --------------------------------------------------------------
 
 Alpha MOs
 -- Occupied --
-68.747 -15.540 -11.226 -11.196 -11.196 -11.190  -6.094  -4.201
 -4.201  -4.201  -1.164  -0.965  -0.921  -0.917  -0.878  -0.665
 -0.614  -0.602  -0.567  -0.559  -0.553  -0.540  -0.535  -0.527
 -0.524  -0.431  -0.426  -0.421  -0.377
 -- Virtual --
  0.053   0.069   0.072   0.076   0.107   0.115   0.116   0.124
  0.131   0.149   0.151   0.153   0.157   0.175   0.179   0.187
  0.189   0.192   0.195   0.218   0.225   0.238   0.255   0.268
  0.275   0.282   0.286   0.295   0.309   0.317   0.320   0.330
  0.350   0.364   0.371   0.374   0.396   0.398   0.405   0.416
  0.438   0.477   0.481   0.485   0.493   0.501   0.549   0.634
  0.637   0.653   0.675   0.677   0.695   0.701   0.707   0.718
  0.735   0.766   0.796   0.844   0.849   0.860   0.873   0.884
  0.895   0.905   0.916   0.933   0.934   0.942   0.953   0.980
  0.996   1.049   1.055   1.091   1.114   1.116   1.126   1.148
  1.169   1.183   1.230   1.300   1.305   1.339   1.403   1.421
  1.451   1.487   1.492   1.523   1.645   1.717   1.729   1.737
  1.739   1.758   1.770   1.785   1.830   1.841   1.851   1.855
  1.877   1.882   1.895   1.899   1.938   1.942   1.980   1.998
  2.008   2.018   2.034   2.052   2.081   2.090   2.104   2.112
  2.149   2.175   2.268   2.303   2.334   2.368   2.372   2.468
  2.482   2.494   2.507   2.535   2.559   2.570   2.572   2.749
  2.780   2.793   2.795   2.811   2.818   2.833   2.881   2.894
  2.898   2.906   2.916   2.927   2.944   2.948   2.957   2.968
[...]
 Red. Mass:       1.2656                 1.2369                 1.3859
 IR Active:          YES                    YES                    YES
 IR Intens:       42.633                 13.272                  1.318
 Raman Active:       YES                    YES                    YES
               X      Y      Z        X      Y      Z        X      Y      Z
 C          0.006  0.018  0.075   -0.009 -0.019 -0.073   -0.003  0.001  0.005
 Si         0.006  0.006 -0.010    0.006 -0.001  0.002    0.012 -0.001  0.005
 C         -0.085 -0.042  0.064   -0.073 -0.033  0.050    0.002  0.001 -0.005
 C         -0.003 -0.061 -0.002    0.000  0.077  0.005   -0.004 -0.003 -0.003
 C         -0.008 -0.006  0.001   -0.004  0.010 -0.000   -0.135  0.088 -0.014
 N          0.001  0.005  0.002    0.001 -0.008 -0.003    0.037 -0.073  0.005
 H         -0.139 -0.114 -0.234    0.142  0.116  0.245   -0.013 -0.018 -0.024
 H          0.086 -0.122 -0.251   -0.083  0.134  0.254    0.013 -0.002 -0.030
 H         -0.008  0.044 -0.285    0.021 -0.046  0.290    0.017  0.002 -0.027
 H          0.360  0.219 -0.064    0.321  0.185 -0.058   -0.024 -0.019  0.005
 H          0.179  0.230 -0.318    0.153  0.201 -0.273   -0.012 -0.003  0.027
 H          0.341 -0.026 -0.258    0.305 -0.021 -0.217   -0.010 -0.000  0.029
 H         -0.004  0.222 -0.081    0.021 -0.289  0.103    0.006  0.016 -0.010
 H         -0.077  0.206  0.075    0.097 -0.275 -0.098    0.007  0.009  0.018
 H          0.100  0.209  0.036   -0.125 -0.271 -0.064    0.005  0.027  0.014
 H          0.059  0.007 -0.004   -0.045 -0.026  0.007    0.247 -0.245  0.006
 H         -0.007 -0.009  0.014    0.039  0.012 -0.007    0.646  0.090  0.031
 H         -0.010 -0.017  0.001    0.027  0.035 -0.015    0.291  0.259 -0.266
 H          0.012  0.007 -0.014   -0.027 -0.012  0.028   -0.356 -0.102  0.229
 TransDip   0.087  0.097 -0.164    0.109 -0.030  0.028    0.017 -0.026  0.019

 Mode:                31                     32                     33
 Frequency:      1461.97                1465.68                1465.91
 Force Cnst:      1.3251                 1.3312                 1.3315
 Red. Mass:       1.0522                 1.0518                 1.0517
 IR Active:          YES                    YES                    YES
 IR Intens:        0.006                  0.176                  0.194
 Raman Active:       YES                    YES                    YES
               X      Y      Z        X      Y      Z        X      Y      Z
 C          0.032  0.025 -0.008    0.025 -0.015  0.002    0.019 -0.031  0.005
 Si         0.001 -0.000  0.000   -0.000  0.000 -0.001   -0.001 -0.000  0.001
 C          0.006 -0.026 -0.009   -0.034  0.021 -0.034    0.004  0.023  0.020
 C         -0.033 -0.001  0.021    0.010 -0.001  0.017   -0.037  0.001 -0.016
 C         -0.001  0.001  0.000   -0.003 -0.004  0.004    0.001  0.002 -0.001
 N          0.001 -0.001  0.000    0.001 -0.000 -0.000   -0.001 -0.001 -0.001
 H          0.158  0.010  0.194   -0.083  0.290  0.009   -0.175  0.384 -0.064
 H         -0.232 -0.406  0.058    0.044 -0.088 -0.132    0.151  0.048 -0.198
 H         -0.365  0.066 -0.137   -0.288  0.010  0.098   -0.233 -0.015  0.187
 H         -0.212  0.166 -0.042    0.105 -0.494  0.112    0.218 -0.045  0.012
 H         -0.006  0.192  0.225    0.114  0.221 -0.178   -0.027 -0.292 -0.210
 H          0.140 -0.019 -0.067    0.238 -0.007  0.517   -0.240  0.023 -0.073
 H          0.409 -0.079 -0.037   -0.076 -0.095  0.054    0.391  0.104 -0.116
 H         -0.039  0.184  0.119   -0.152  0.031 -0.166    0.229  0.074  0.357
 H          0.063 -0.090 -0.363    0.088  0.084 -0.115   -0.106 -0.201 -0.046
 H          0.002  0.003 -0.000    0.011  0.032 -0.000   -0.001 -0.013  0.002
 H          0.004  0.003 -0.006    0.008  0.005 -0.033   -0.006 -0.001  0.014
 H          0.002 -0.000 -0.002   -0.002 -0.005  0.000    0.005  0.012 -0.000
 H         -0.008 -0.002  0.008   -0.004  0.001 -0.000    0.005 -0.002  0.003
 TransDip  -0.002 -0.001  0.001   -0.005 -0.001  0.012    0.009 -0.002 -0.010

 Mode:                34                     35                     36
 Frequency:      1473.98                1477.18                1483.94
 Force Cnst:      1.3442                 1.3494                 1.3577
 Red. Mass:       1.0501                 1.0496                 1.0465
 IR Active:          YES                    YES                    YES
 IR Intens:        5.061                  5.499                  6.693
 Raman Active:       YES                    YES                    YES
               X      Y      Z        X      Y      Z        X      Y      Z
 C         -0.026 -0.030  0.009    0.008 -0.018  0.005    0.028 -0.022  0.002
 Si        -0.004 -0.004  0.002    0.001 -0.005 -0.005    0.008 -0.003  0.003
 C          0.003 -0.019 -0.012   -0.001 -0.033 -0.021    0.018 -0.013  0.019
 C         -0.016 -0.000  0.029   -0.000  0.004 -0.037    0.030 -0.001  0.013
 C          0.010  0.014 -0.014   -0.007 -0.012  0.013    0.001  0.009 -0.008
 N          0.000  0.006 -0.003    0.000 -0.003  0.004    0.002  0.002 -0.001
 H         -0.199  0.073 -0.216   -0.115  0.213 -0.058   -0.119  0.398  0.012
 H          0.263  0.413 -0.102    0.109  0.059 -0.125    0.074 -0.097 -0.192
 H          0.313 -0.068  0.186   -0.097 -0.013  0.117   -0.366  0.008  0.148
 H         -0.191  0.089 -0.021   -0.319  0.121 -0.029   -0.070  0.310 -0.071
 H          0.006  0.196  0.188    0.024  0.372  0.306   -0.074 -0.125  0.125
 H          0.155 -0.016 -0.002    0.306 -0.030  0.033   -0.127  0.004 -0.320
 H          0.262 -0.147  0.016   -0.097  0.198 -0.068   -0.330 -0.111  0.105
 H         -0.152  0.170 -0.040    0.271 -0.158  0.205   -0.211 -0.057 -0.320
 H          0.115 -0.012 -0.375   -0.177 -0.091  0.375    0.103  0.187  0.019
 H         -0.036 -0.185  0.014    0.052  0.167 -0.015   -0.008 -0.114  0.007
 H         -0.045 -0.037  0.188   -0.000  0.029 -0.165   -0.005 -0.020  0.114
 H         -0.021 -0.027  0.010    0.016  0.021 -0.009   -0.012 -0.018  0.006
 H         -0.002  0.006 -0.003    0.006 -0.002 -0.003   -0.010  0.004 -0.009
 TransDip   0.052  0.042 -0.028   -0.027  0.048  0.051   -0.068  0.036 -0.030

 Mode:                37                     38                     39
 Frequency:      1490.87                1659.16                3005.09
 Force Cnst:      1.4014                 1.7548                 5.6813
 Red. Mass:       1.0702                 1.0819                 1.0678
 IR Active:          YES                    YES                    YES
 IR Intens:        8.458                 28.489                 56.110
 Raman Active:       YES                    YES                    YES
               X      Y      Z        X      Y      Z        X      Y      Z
 C          0.007  0.007 -0.000   -0.000  0.000  0.000   -0.000  0.000  0.000
 Si        -0.001  0.003 -0.004    0.000 -0.002  0.001    0.001 -0.000 -0.000
 C         -0.006  0.000 -0.008   -0.000  0.001 -0.001   -0.000  0.000  0.001
 C          0.001  0.000 -0.019    0.002 -0.001  0.002   -0.000  0.000  0.000
 C          0.027  0.044 -0.045   -0.008 -0.003 -0.018   -0.006  0.012 -0.072
 N         -0.006  0.015 -0.009   -0.065 -0.034  0.004    0.001  0.001 -0.000
 H          0.050 -0.030  0.050   -0.002  0.001 -0.003    0.001  0.000  0.000
 H         -0.067 -0.102  0.031    0.002  0.001 -0.004   -0.001  0.000 -0.001
 H         -0.071  0.018 -0.061   -0.000 -0.000  0.003    0.000  0.000  0.000
 H         -0.017 -0.077  0.017   -0.002  0.002 -0.001   -0.003 -0.004 -0.012
 H          0.023  0.081  0.001   -0.004 -0.002  0.006    0.001 -0.001  0.003
 H          0.076 -0.005  0.098    0.003  0.001 -0.003   -0.000  0.005  0.000
 H         -0.056  0.117 -0.039   -0.006 -0.003  0.003   -0.001  0.001 -0.002
 H          0.144 -0.083  0.110   -0.022  0.016 -0.013    0.002  0.000 -0.001
 H         -0.094 -0.046  0.205    0.011  0.011 -0.016   -0.000  0.000  0.001
 H         -0.100 -0.618  0.045    0.044 -0.003 -0.025    0.051  0.102  0.953
 H         -0.108 -0.119  0.627   -0.044 -0.015  0.038   -0.004 -0.258 -0.079
 H         -0.054 -0.042  0.050    0.274  0.632  0.049   -0.004  0.006 -0.000
 H          0.036  0.019 -0.037    0.706 -0.065  0.079    0.005 -0.001  0.001
 TransDip   0.070 -0.039  0.048    0.124  0.088  0.077    0.061  0.072 -0.221

 Mode:                40                     41                     42
 Frequency:      3060.81                3062.32                3064.69
 Force Cnst:      5.7170                 5.7224                 5.7298
 Red. Mass:       1.0357                 1.0357                 1.0354
 IR Active:          YES                    YES                    YES
 IR Intens:        7.364                  7.585                  6.794
 Raman Active:       YES                    YES                    YES
               X      Y      Z        X      Y      Z        X      Y      Z
 C         -0.000 -0.000 -0.001    0.000  0.000  0.001   -0.009 -0.015 -0.047
 Si         0.000  0.001  0.000    0.001  0.000 -0.001    0.000  0.000  0.001
 C         -0.002 -0.001  0.001   -0.038 -0.019  0.027   -0.001 -0.000  0.001
 C         -0.001 -0.050 -0.006    0.000  0.002  0.000    0.000  0.001  0.000
 C         -0.000  0.000  0.000    0.000  0.000  0.001    0.000  0.000 -0.000
 N         -0.000  0.000 -0.000   -0.000  0.000 -0.000    0.000  0.000  0.000
 H         -0.012 -0.004  0.008    0.009  0.004 -0.004   -0.431 -0.156  0.266
 H          0.014 -0.007  0.006   -0.015  0.008 -0.007    0.486 -0.262  0.232
 H          0.001  0.012 -0.000   -0.002 -0.017 -0.001    0.053  0.593  0.039
 H         -0.003 -0.008 -0.025   -0.060 -0.166 -0.544   -0.001 -0.005 -0.018
 H          0.022 -0.009  0.009    0.499 -0.199  0.206    0.012 -0.005  0.005
 H         -0.001  0.021  0.002   -0.002  0.580  0.027    0.000  0.013  0.000
 H          0.100  0.158  0.569   -0.004 -0.006 -0.021   -0.003 -0.006 -0.018
 H          0.409  0.206 -0.330   -0.019 -0.011  0.015   -0.010 -0.005  0.008
 H         -0.495  0.209 -0.167    0.019 -0.008  0.007    0.011 -0.005  0.004
 H          0.000 -0.000 -0.002   -0.001 -0.001 -0.011   -0.001  0.000 -0.001
 H          0.001 -0.007 -0.001   -0.000 -0.002 -0.000    0.000 -0.006 -0.001
 H          0.000  0.000  0.000   -0.000 -0.000  0.000   -0.000 -0.000  0.000
 H          0.001 -0.000 -0.000    0.000  0.000  0.000    0.000 -0.000  0.000
 TransDip  -0.007 -0.085 -0.016   -0.065 -0.028  0.053   -0.039 -0.027 -0.069

 Mode:                43                     44                     45
 Frequency:      3099.77                3152.76                3154.47
 Force Cnst:      6.1803                 6.4424                 6.4496
 Red. Mass:       1.0917                 1.1001                 1.1001
 IR Active:          YES                    YES                    YES
 IR Intens:       17.189                  6.400                  1.642
 Raman Active:       YES                    YES                    YES
               X      Y      Z        X      Y      Z        X      Y      Z
 C         -0.000  0.001 -0.001    0.004 -0.004  0.001   -0.021  0.046 -0.011
 Si        -0.000 -0.001 -0.000   -0.000 -0.000 -0.000    0.000 -0.000 -0.000
 C         -0.000  0.001  0.001    0.013 -0.005  0.015    0.038 -0.062  0.011
 C          0.000 -0.000  0.000   -0.055  0.008 -0.070    0.016 -0.000 -0.003
 C          0.000 -0.079 -0.037    0.000 -0.000 -0.000   -0.000 -0.000  0.000
 N          0.001  0.001  0.000    0.000 -0.000  0.000   -0.000 -0.000 -0.000
 H         -0.006 -0.002  0.004   -0.012 -0.005  0.008   -0.019  0.006  0.007
 H          0.009 -0.004  0.004   -0.038  0.020 -0.019    0.317 -0.158  0.159
 H         -0.000 -0.007  0.001    0.005  0.039  0.004   -0.044 -0.400 -0.039
 H         -0.002 -0.004 -0.014   -0.009 -0.039 -0.125    0.011 -0.006  0.032
 H          0.004 -0.000  0.002   -0.151  0.058 -0.056   -0.492  0.174 -0.191
 H          0.001 -0.009 -0.000    0.004  0.038  0.005    0.020  0.579  0.022
 H         -0.000  0.001  0.000    0.103  0.203  0.643    0.004  0.000  0.000
 H          0.004  0.002 -0.003   -0.042 -0.014  0.008   -0.087 -0.049  0.071
 H         -0.005  0.002 -0.001    0.599 -0.278  0.188   -0.107  0.051 -0.038
 H          0.021  0.006  0.249    0.001 -0.001  0.001   -0.000 -0.000 -0.000
 H         -0.027  0.943  0.198   -0.000  0.004  0.001   -0.000  0.001  0.001
 H         -0.001 -0.001  0.002   -0.000  0.000 -0.000    0.000 -0.000  0.000
 H          0.000 -0.016 -0.006    0.001  0.001 -0.000   -0.000  0.000 -0.000
 TransDip  -0.016 -0.118 -0.060   -0.047 -0.003 -0.066    0.037 -0.018 -0.004

 Mode:                46                     47                     48
 Frequency:      3155.11                3156.05                3156.35
 Force Cnst:      6.4520                 6.4535                 6.4570
 Red. Mass:       1.1001                 1.0997                 1.1000
 IR Active:          YES                    YES                    YES
 IR Intens:        9.215                 26.312                 15.807
 Raman Active:       YES                    YES                    YES
               X      Y      Z        X      Y      Z        X      Y      Z
 C          0.006 -0.003  0.000    0.028 -0.067  0.016    0.003 -0.007  0.002
 Si        -0.000 -0.000  0.000    0.001 -0.001  0.000   -0.000 -0.000 -0.001
 C          0.010 -0.018  0.001    0.028 -0.037  0.014   -0.033 -0.041 -0.073
 C         -0.068 -0.004  0.057    0.020 -0.001  0.001   -0.006  0.001 -0.013
 C         -0.000 -0.000  0.000   -0.000 -0.001 -0.001    0.000 -0.001 -0.001
 N         -0.000  0.000 -0.000   -0.000  0.000  0.000    0.000  0.000  0.000
 H         -0.028 -0.011  0.018    0.045 -0.001 -0.022    0.004 -0.000 -0.002
 H         -0.045  0.024 -0.023   -0.451  0.224 -0.228   -0.041  0.020 -0.020
 H          0.004  0.024  0.003    0.063  0.590  0.059    0.006  0.063  0.007
 H          0.005  0.004  0.026    0.002 -0.022 -0.047    0.060  0.218  0.770
 H         -0.123  0.043 -0.048   -0.353  0.126 -0.134    0.336 -0.138  0.115
 H          0.005  0.170  0.006    0.014  0.344  0.013    0.001  0.413 -0.003
 H         -0.080 -0.114 -0.361   -0.002 -0.010 -0.032    0.020  0.038  0.118
 H          0.572  0.319 -0.458   -0.090 -0.051  0.076   -0.028 -0.014  0.019
 H          0.329 -0.159  0.129   -0.149  0.072 -0.051    0.080 -0.037  0.024
 H         -0.000  0.000 -0.003   -0.000  0.000  0.002    0.002  0.000  0.011
 H          0.000  0.001  0.000   -0.001  0.014  0.002   -0.001  0.013  0.003
 H          0.001  0.001 -0.000    0.000 -0.000 -0.000   -0.001  0.000 -0.000
 H          0.002 -0.002  0.001    0.000  0.000  0.000    0.000 -0.000 -0.000
 TransDip  -0.062 -0.028  0.069    0.096 -0.128  0.036   -0.043 -0.058 -0.105

 Mode:                49                     50                     51
 Frequency:      3166.01                3534.03                3628.71
 Force Cnst:      6.4979                 7.7268                 8.4829
 Red. Mass:       1.1003                 1.0500                 1.0934
 IR Active:          YES                    YES                    YES
 IR Intens:        7.372                  0.611                  2.999
 Raman Active:       YES                    YES                    YES
               X      Y      Z        X      Y      Z        X      Y      Z
 C         -0.084 -0.032  0.020   -0.000 -0.000 -0.000    0.000  0.000 -0.000
 Si        -0.001 -0.000  0.000    0.000 -0.000  0.000   -0.000  0.000 -0.000
 C          0.000  0.000  0.000   -0.000  0.000 -0.000    0.000 -0.000  0.000
 C         -0.004 -0.000  0.001   -0.000 -0.000  0.000   -0.000 -0.000  0.000
 C          0.000 -0.000  0.000    0.001 -0.001 -0.003    0.000 -0.001 -0.000
 N         -0.000  0.000 -0.000   -0.048 -0.022 -0.021    0.037 -0.072  0.002
 H          0.673  0.237 -0.450   -0.000  0.000 -0.000   -0.000 -0.000 -0.000
 H          0.321 -0.184  0.175    0.000 -0.000  0.000   -0.000  0.000 -0.000
 H          0.014  0.330  0.035   -0.000  0.000 -0.000    0.000  0.000  0.000
 H         -0.000 -0.002 -0.006   -0.000  0.000  0.001    0.000 -0.000 -0.000
 H          0.002 -0.001  0.000    0.000 -0.000  0.000   -0.000  0.000 -0.000
 H          0.000 -0.001 -0.000    0.000 -0.000 -0.000    0.000  0.000 -0.000
 H         -0.001 -0.001 -0.003   -0.000 -0.000 -0.000    0.000 -0.000 -0.001
 H          0.028  0.016 -0.022    0.002  0.000 -0.000    0.002  0.001 -0.001
 H          0.028 -0.014  0.010    0.000  0.000  0.000   -0.000  0.000 -0.000
 H          0.000 -0.000  0.000    0.005  0.003  0.006   -0.000  0.000  0.000
 H         -0.000  0.005  0.001   -0.001  0.009  0.003   -0.001  0.013  0.003
 H         -0.000  0.000 -0.001    0.642 -0.339  0.201   -0.561  0.267 -0.198
 H          0.000 -0.000 -0.000    0.011  0.644  0.123    0.040  0.733  0.172
 TransDip  -0.080 -0.033  0.008   -0.021 -0.013 -0.006   -0.013  0.053 -0.009

 STANDARD THERMODYNAMIC QUANTITIES AT   298.15 K  AND     1.00 ATM

   This Molecule has  0 Imaginary Frequencies
   Zero point vibrational energy:      105.074 kcal/mol

   Atom    1 Element C  Has Mass   12.00000
   Atom    2 Element Si Has Mass   27.97693
   Atom    3 Element C  Has Mass   12.00000
   Atom    4 Element C  Has Mass   12.00000
   Atom    5 Element C  Has Mass   12.00000
   Atom    6 Element N  Has Mass   14.00307
   Atom    7 Element H  Has Mass    1.00783
   Atom    8 Element H  Has Mass    1.00783
   Atom    9 Element H  Has Mass    1.00783
   Atom   10 Element H  Has Mass    1.00783
   Atom   11 Element H  Has Mass    1.00783
   Atom   12 Element H  Has Mass    1.00783
   Atom   13 Element H  Has Mass    1.00783
   Atom   14 Element H  Has Mass    1.00783
   Atom   15 Element H  Has Mass    1.00783
   Atom   16 Element H  Has Mass    1.00783
   Atom   17 Element H  Has Mass    1.00783
   Atom   18 Element H  Has Mass    1.00783
   Atom   19 Element H  Has Mass    1.00783
   Molecular Mass:   103.081790 amu
   Principal axes and moments of inertia in amu*Bohr^2:
                             1           2           3
    Eigenvalues --      590.83663   958.19515   959.88773
          X               0.99992     0.01087     0.00704
          Y              -0.01100     0.99975     0.01935
          Z              -0.00683    -0.01943     0.99979
   Rotational Symmetry Number is   1
   The Molecule is an Asymmetric Top
   Translational Enthalpy:        0.889 kcal/mol
   Rotational Enthalpy:           0.889 kcal/mol
   Vibrational Enthalpy:        109.870 kcal/mol
   gas constant (RT):             0.592 kcal/mol
   Translational Entropy:        39.808  cal/mol.K
   Rotational Entropy:           27.787  cal/mol.K
   Vibrational Entropy:          29.169  cal/mol.K

   Total Enthalpy:              112.240 kcal/mol
   Total Entropy:                96.764  cal/mol.K
Archival summary:
1\1\mm2.localdomain\FREQ\MP2\6-311+G**\i11413\xuedong\MonJun2200:36:142020MonJun2200:36:142020\0\\#,FREQ,MP2,6-311+G**,\\0,1\Si\C,1,1.87632\H,2,1.09425,1,110.185\H,2,1.09521,1,111.519,3,120.296,0\H,2,1.09523,1,111.127,3,-119.421,0\C,1,1.88138,2,110.507,3,174.024,0\H,6,1.09515,1,111.426,2,178.589,0\H,6,1.09528,1,111.037,2,58.6214,0\H,6,1.09531,1,111.264,2,-61.1083,0\C,1,1.88278,2,109.881,3,-64.7603,0\H,10,1.0952,1,111.35,2,55.4363,0\H,10,1.09532,1,110.894,2,-63.9602,0\H,10,1.09561,1,111.504,2,176.251,0\C,1,1.89454,2,109.233,3,54.345,0\H,14,1.09702,1,107.774,2,52.2194,0\H,14,1.10283,1,110.468,2,168.013,0\N,14,1.47678,1,110.272,2,-65.2215,0\H,17,1.01519,14,110.21,1,-66.597,0\H,17,1.01567,14,110.707,1,176.023,0\\HF=-502.514243\MP2=-503.424356\\@

 Total job time:  6280.96s(wall), 14455.88s(cpu) 
 Mon Jun 22 00:36:14 2020

        *************************************************************
        *                                                           *
        *  Thank you very much for using Q-Chem.  Have a nice day.  *
        *                                                           *
        *************************************************************


