
Running Job 1 of 2 13.freq.qcinp
qchem 13.freq.qcinp_12502.0 /scratch/xuedong/qchem12502/ 1
/home/qwang/software/qchem5.1/exe/qcprog.exe_s 13.freq.qcinp_12502.0 /scratch/xuedong/qchem12502/
Check license passed

                  Welcome to Q-Chem
     A Quantum Leap Into The Future Of Chemistry


 Q-Chem 5.1, Q-Chem, Inc., Pleasanton, CA (2018)

 Yihan Shao,  Zhengting Gan,  E. Epifanovsky,  A. T. B. Gilbert,  M. Wormit,  
 J. Kussmann,  A. W. Lange,  A. Behn,  Jia Deng,  Xintian Feng,  D. Ghosh,  
 M. Goldey,  P. R. Horn,  L. D. Jacobson,  I. Kaliman,  T. Kus,  A. Landau,  
 Jie Liu,  E. I. Proynov,  R. M. Richard,  R. P. Steele,  E. J. Sundstrom,  
 H. L. Woodcock III,  P. M. Zimmerman,  D. Zuev,  B. Albrecht,  E. Alguire,  
 S. A. Baeppler,  D. Barton,  Z. Benda,  Y. A. Bernard,  E. J. Berquist,  
 K. B. Bravaya,  H. Burton,  D. Casanova,  Chun-Min Chang,  Yunqing Chen,  
 A. Chien,  K. D. Closser,  M. P. Coons,  S. Coriani,  S. Dasgupta,  
 A. L. Dempwolff,  M. Diedenhofen,  Hainam Do,  R. G. Edgar,  Po-Tung Fang,  
 S. Faraji,  S. Fatehi,  Qingguo Feng,  K. D. Fenk,  J. Fosso-Tande,  
 Qinghui Ge,  A. Ghysels,  G. Gidofalvi,  J. Gomes,  J. Gonthier,  A. Gunina,  
 D. Hait,  M. W. D. Hanson-Heine,  P. H. P. Harbach,  A. W. Hauser,  
 J. E. Herr,  E. G. Hohenstein,  Z. C. Holden,  Kerwin Hui,  B. C. Huynh,  
 T.-C. Jagau,  Hyunjun Ji,  B. Kaduk,  K. Khistyaev,  Jaehoon Kim,  
 P. Klunzinger,  K. Koh,  D. Kosenkov,  L. Koulias,  T. Kowalczyk,  
 C. M. Krauter,  A. Kunitsa,  Ka Un Lao,  A. Laurent,  K. V. Lawler,  
 Joonho Lee,  D. Lefrancois,  S. Lehtola,  D. S. Levine,  Yi-Pei Li,  
 You-Sheng Lin,  Fenglai Liu,  E. Livshits,  A. Luenser,  P. Manohar,  
 E. Mansoor,  S. F. Manzer,  Shan-Ping Mao,  Yuezhi Mao,  N. Mardirossian,  
 A. V. Marenich,  T. Markovich,  L. A. Martinez-Martinez,  S. A. Maurer,  
 N. J. Mayhall,  S. C. McKenzie,  J.-M. Mewes,  A. F. Morrison,  
 J. W. Mullinax,  K. Nanda,  T. S. Nguyen-Beck,  R. Olivares-Amaya,  
 J. A. Parkhill,  T. M. Perrine,  F. Plasser,  P. Pokhilko,  S. Prager,  
 A. Prociuk,  E. Ramos,  D. R. Rehn,  F. Rob,  M. Schneider,  N. Sergueev,  
 S. M. Sharada,  S. Sharma,  D. W. Small,  T. Stauch,  T. Stein,  
 Yu-Chuan Su,  A. J. W. Thom,  A. Tkatchenko,  T. Tsuchimochi,  N. M. Tubman,  
 L. Vogt,  M. L. Vidal,  O. Vydrov,  M. A. Watson,  J. Wenzel,  
 M. de Wergifosse,  T. A. Wesolowski,  A. White,  J. Witte,  A. Yamada,  
 Jun Yang,  K. Yao,  S. Yeganeh,  S. R. Yost,  Zhi-Qiang You,  A. Zech,  
 Igor Ying Zhang,  Xing Zhang,  Yan Zhao,  Ying Zhu,  B. R. Brooks,  
 G. K. L. Chan,  C. J. Cramer,  M. S. Gordon,  W. J. Hehre,  A. Klamt,  
 M. W. Schmidt,  C. D. Sherrill,  D. G. Truhlar,  A. Aspuru-Guzik,  R. Baer,  
 A. T. Bell,  N. A. Besley,  Jeng-Da Chai,  R. A. DiStasio Jr.,  A. Dreuw,  
 B. D. Dunietz,  T. R. Furlani,  Chao-Ping Hsu,  Yousung Jung,  Jing Kong,  
 D. S. Lambrecht,  WanZhen Liang,  C. Ochsenfeld,  V. A. Rassolov,  
 L. V. Slipchenko,  J. E. Subotnik,  T. Van Voorhis,  J. M. Herbert,  
 A. I. Krylov,  P. M. W. Gill,  M. Head-Gordon

 Contributors to earlier versions of Q-Chem not listed above: 
 R. D. Adamson,  B. Austin,  J. Baker,  G. J. O. Beran,  K. Brandhorst,  
 S. T. Brown,  E. F. C. Byrd,  A. K. Chakraborty,  C.-L. Cheng,  
 Siu Hung Chien,  D. M. Chipman,  D. L. Crittenden,  H. Dachsel,  
 R. J. Doerksen,  A. D. Dutoi,  L. Fusti-Molnar,  W. A. Goddard III,  
 A. Golubeva-Zadorozhnaya,  S. R. Gwaltney,  G. Hawkins,  A. Heyden,  
 S. Hirata,  G. Kedziora,  F. J. Keil,  C. Kelley,  Jihan Kim,  R. A. King,  
 R. Z. Khaliullin,  P. P. Korambath,  W. Kurlancheek,  A. M. Lee,  M. S. Lee,  
 S. V. Levchenko,  Ching Yeh Lin,  D. Liotard,  R. C. Lochan,  I. Lotan,  
 P. E. Maslen,  N. Nair,  D. P. O'Neill,  D. Neuhauser,  E. Neuscamman,  
 C. M. Oana,  R. Olson,  B. Peters,  R. Peverati,  P. A. Pieniazek,  
 Y. M. Rhee,  J. Ritchie,  M. A. Rohrdanz,  E. Rosta,  N. J. Russ,  
 H. F. Schaefer III,  N. E. Schultz,  N. Shenvi,  A. C. Simmonett,  A. Sodt,  
 D. Stuck,  K. S. Thanthiriwatte,  V. Vanovschi,  Tao Wang,  A. Warshel,  
 C. F. Williams,  Q. Wu,  X. Xu,  W. Zhang

 Please cite Q-Chem as follows:
 Y. Shao et al., Mol. Phys. 113, 184-215 (2015)
 DOI: 10.1080/00268976.2014.952696

 Q-Chem 5.1.0 for Intel X86 EM64T Linux

 Parts of Q-Chem use Armadillo 8.300.2 (Tropical Shenanigans).
 http://arma.sourceforge.net/

 Q-Chem begins on Mon Jun 22 00:36:14 2020  

Host: 
0

     Scratch files written to /scratch/xuedong/qchem12502//
 May118 |scratch|qcdevops|jenkins|workspace|build_RNUM 6581   
Processing $rem in /home/qwang/software/qchem5.1/config/preferences.
 MEM_TOTAL  2000 
Core orbitals will be frozen

Checking the input file for inconsistencies... 	...done.

--------------------------------------------------------------
User input:
--------------------------------------------------------------
$molecule
0 1
C         0.4677216092   -1.0835838707    1.5421256389
Si        0.4066474198   -0.0048406518   -0.0001537527
C         1.8241161152    1.2443989542    0.0067235417
C         0.4675664083   -1.0663542669   -1.5543490797
C        -1.2408838224    0.9465422942    0.0052246699
O        -2.2739482047   -0.0592336105   -0.0003388037
H        -0.4008270463   -1.7473226116    1.5703496219
H         1.3706627288   -1.7015932251    1.5678442873
H         0.4531494283   -0.4760739216    2.4525854652
H         1.7914104045    1.8938349540   -0.8738473971
H         2.7929377404    0.7348756245    0.0038468241
H         1.7914970675    1.8840231766    0.8944496494
H         0.4529802180   -0.4487463763   -2.4579891999
H        -0.4010343765   -1.7296730629   -1.5899037515
H         1.3704593941   -1.6841055524   -1.5870004507
H        -1.3204570716    1.6019155489   -0.8760911741
H        -1.3203680813    1.5920345248    0.8938112973
H        -3.1330973516    0.3950734634    0.0022728489
$end

$rem
JOBTYPE  =  opt
METHOD  =  MP2
BASIS  =  6-311G+(d,p)
SCF_MAX_CYCLES  =  200
GEOM_OPT_MAX_CYCLES  =  300
GEOM_OPT_TOL_DISPLACEMENT = 120
GEOM_OPT_TOL_ENERGY = 10
GEOM_OPT_TOL_GRADIENT = 20
$end
--------------------------------------------------------------
 ----------------------------------------------------------------
             Standard Nuclear Orientation (Angstroms)
    I     Atom           X                Y                Z
 ----------------------------------------------------------------
    1      C      -0.4407349946    -1.5482500753     1.0861874007
    2      Si     -0.4053745658    -0.0000008458     0.0148720063
    3      C      -1.8523477164    -0.0000078221    -1.2000901717
    4      C      -0.4407277165     1.5482725816     1.0861539212
    5      C       1.2189052032    -0.0000174727    -0.9756999815
    6      O       2.2757549389     0.0000094967     0.0050684805
    7      H       0.4434539826    -1.5801183800     1.7287733795
    8      H      -1.3286226284    -1.5774432971     1.7254862212
    9      H      -0.4407902565    -2.4553214072     0.4734563195
   10      H      -1.8351253978     0.8841576855    -1.8452232638
   11      H      -2.8086919782    -0.0000067800    -0.6675084471
   12      H      -1.8351282457    -0.8841665843    -1.8452316783
   13      H      -0.4408557002     2.4553292989     0.4734012586
   14      H       0.4435087713     1.5801842828     1.7286729949
   15      H      -1.3285684205     1.5774499146     1.7255177254
   16      H       1.2828395343     0.8849281275    -1.6278865406
   17      H       1.2828358805    -0.8850019270    -1.6278345885
   18      H       3.1237802135    -0.0000383347    -0.4696863259
 ----------------------------------------------------------------
 Molecular Point Group                 C1    NOp =  1
 Largest Abelian Subgroup              C1    NOp =  1
 Nuclear Repulsion Energy =   320.9974098475 hartrees
 There are       29 alpha and       29 beta electrons
 Requested basis set is 6-311+G(d,p)
 There are 91 shells and 212 basis functions

 Total QAlloc Memory Limit   2000 MB
 Mega-Array Size       188 MB
 MEM_STATIC part       192 MB
 A cutoff of  1.0D-11 yielded   3848 shell pairs
 There are     21417 function pairs (     22687 Cartesian)
 
 -------------------------------------------------------
 OpenMP Integral Computing Module                       
 Release: version 1.0, May 2013, Q-Chem Inc. Pittsburgh 
 -------------------------------------------------------
 Integral Job Info:
 Integral job number is                      11
 Integral operator is                         1
 short-range coefficients                     0
 long-range coefficients              100000000
 Omega coefficients                           0
 if combine SR and LR in K                    0
 Integral screening is                        0
 Integral computing path is                   2
 max size of driver memory is            800000
 size of driver memory is                593474
 size of scratch memory is              4204008
 max col of scratch BK array               1296
 max len of scratch array in speh3          155
 max len of scratch index in speh4           18
 max int batch size is                      520
 min int batch size is                       52
 fixed nKL is                                52
 max L of basis functions is                  2
 order of int derivative is                   0
 number of shells is                         91
 number of basis is                         218
 number of cartesian basis is               218
 number of contracted shell pairs          3848
 number of primitive shell pairs           8678
 maxK2 (contraction) of shell pair           36
 max number of K2 of shell pair               1
 max number of CS2 of shell pair            493
 max number of PS2 of shell pair           1005
 mem total for path MDJ                  525116
 -------------------------------------------------------
 Smallest overlap matrix eigenvalue = 1.62E-04

 Scale SEOQF with 1.000000e-01/1.000000e-01/1.000000e-01

 Standard Electronic Orientation quadrupole field applied
 Nucleus-field energy     =     0.0000000019 hartrees
 Guess from superposition of atomic densities
 Warning:  Energy on first SCF cycle will be non-variational
 SAD guess density has 58.000000 electrons

 -----------------------------------------------------------------------
  General SCF calculation program by
  Eric Jon Sundstrom, Paul Horn, Yuezhi Mao, Dmitri Zuev, Alec White,
  David Stuck, Shaama M.S., Shane Yost, Joonho Lee, David Small,
  Daniel Levine, Susi Lehtola, Hugh Burton, Evgeny Epifanovsky
 -----------------------------------------------------------------------
 Hartree-Fock
 using 4 threads for integral computing
 -------------------------------------------------------
 OpenMP Integral computing Module                
 Release: version 1.0, May 2013, Q-Chem Inc. Pittsburgh 
 -------------------------------------------------------
 A restricted SCF calculation will be
 performed using DIIS
 SCF converges when DIIS error is below 1.0e-08
 ---------------------------------------
  Cycle       Energy         DIIS error
 ---------------------------------------
    1    -523.7175716093      4.11e-02  
    2    -522.2599873055      3.62e-03  
    3    -522.3345544895      1.62e-03  
    4    -522.3463875156      5.11e-04  
    5    -522.3479654941      9.99e-05  
    6    -522.3480420936      2.51e-05  
    7    -522.3480484378      5.72e-06  
    8    -522.3480488648      1.32e-06  
    9    -522.3480488895      3.62e-07  
   10    -522.3480488908      1.05e-07  
   11    -522.3480488910      2.97e-08  
   12    -522.3480488910      6.38e-09  Convergence criterion met
 ---------------------------------------
 SCF time:   CPU 36.74s  wall 10.00s 
 SCF   energy in the final basis set =     -522.3480488910
 Total energy in the final basis set =     -522.3480488910
 
 Components of the MP2 correlation energy:
        aaaa  correlation energy =        -0.1070754984 au
        abab  correlation energy =        -0.7124481268 au
        bbbb  correlation energy =        -0.1070754984 au
        non-Brillouin singles    =        -0.0000000000 au

 Total  MP2   correlation energy =                    -0.92659912 au
        MP2         total energy =                  -523.27464801 au
  Entering Z-vector solver.
   1         0           1      0.000183    0.000183
   2         0           1      0.000050    0.000050
   3         0           1      0.000015    0.000015
   4         0           1      0.000004    0.000004
   5         1           0      0.000000    0.000000    Roots Converged
 
 --------------------------------------------------------------
 
                    Orbital Energies (a.u.)
 --------------------------------------------------------------
 
 Alpha MOs
 -- Occupied --
-68.751 -20.558 -11.255 -11.198 -11.192 -11.192  -6.098  -4.205
 -4.205  -4.204  -1.348  -0.967  -0.920  -0.916  -0.899  -0.689
 -0.626  -0.616  -0.569  -0.557  -0.552  -0.537  -0.534  -0.532
 -0.524  -0.450  -0.426  -0.421  -0.415
 -- Virtual --
  0.052   0.070   0.073   0.075   0.105   0.115   0.120   0.126
  0.130   0.146   0.152   0.153   0.159   0.179   0.182   0.189
  0.189   0.194   0.198   0.221   0.258   0.263   0.269   0.274
  0.278   0.296   0.299   0.309   0.327   0.335   0.342   0.353
  0.365   0.371   0.374   0.381   0.402   0.416   0.429   0.476
  0.476   0.483   0.487   0.494   0.507   0.572   0.635   0.645
  0.657   0.677   0.678   0.701   0.706   0.719   0.727   0.730
  0.795   0.833   0.844   0.858   0.862   0.883   0.898   0.898
  0.909   0.914   0.927   0.952   0.958   0.979   0.991   1.092
  1.105   1.114   1.114   1.168   1.178   1.213   1.272   1.284
  1.297   1.361   1.365   1.386   1.412   1.483   1.492   1.501
  1.582   1.629   1.712   1.728   1.737   1.757   1.766   1.784
  1.806   1.821   1.827   1.844   1.853   1.882   1.891   1.895
  1.904   1.930   1.941   1.963   1.996   2.011   2.035   2.043
  2.044   2.078   2.106   2.110   2.155   2.218   2.291   2.334
  2.350   2.368   2.378   2.481   2.503   2.504   2.514   2.549
  2.568   2.574   2.736   2.780   2.792   2.805   2.806   2.827
  2.850   2.885   2.893   2.909   2.910   2.929   2.934   2.950
  2.955   2.969   2.973   2.975   2.997   3.104   3.246   3.254
  3.267   3.316   3.470   3.483   3.577   3.602   3.716   3.722
  3.782   4.125   4.141   4.147   4.158   4.179   4.188   4.196
  4.288   4.433   5.588   5.931   6.175   6.314  12.429  12.438
 12.447  24.972  25.120  25.121  25.143  51.612 144.069
 --------------------------------------------------------------
 
          Ground-State Mulliken Net Atomic Charges

     Atom                 Charge (a.u.)
  ----------------------------------------
      1 C                    -0.778105
      2 Si                    1.126285
      3 C                    -0.758531
      4 C                    -0.778111
      5 C                    -0.551123
      6 O                    -0.321756
      7 H                     0.183464
      8 H                     0.162190
      9 H                     0.163807
     10 H                     0.161524
     11 H                     0.166514
     12 H                     0.161524
     13 H                     0.163807
     14 H                     0.183466
     15 H                     0.162191
     16 H                     0.148455
     17 H                     0.148454
     18 H                     0.255944
  ----------------------------------------
  Sum of atomic charges =     0.000000

 -----------------------------------------------------------------
                    Cartesian Multipole Moments
 -----------------------------------------------------------------
    Charge (ESU x 10^10)
                 0.0000
    Dipole Moment (Debye)
         X       0.1675      Y      -0.0001      Z      -1.4964
       Tot       1.5058
    Quadrupole Moments (Debye-Ang)
        XX     -45.0191     XY      -0.0003     YY     -49.0985
        XZ      -4.4011     YZ       0.0001     ZZ     -47.8580
    Octopole Moments (Debye-Ang^2)
       XXX      31.8433    XXY      -0.0009    XYY       3.5010
       YYY      -0.0002    XXZ      -6.3112    XYZ       0.0001
       YYZ      -6.1778    XZZ       6.4576    YZZ       0.0001
       ZZZ      -0.5354
    Hexadecapole Moments (Debye-Ang^3)
      XXXX    -466.5514   XXXY      -0.0028   XXYY    -153.1937
      XYYY      -0.0005   YYYY    -343.6966   XXXZ     -44.4922
      XXYZ       0.0005   XYYZ       1.5205   YYYZ      -0.0000
      XXZZ    -146.5533   XYZZ      -0.0001   YYZZ    -114.3721
      XZZZ      -4.5600   YZZZ       0.0001   ZZZZ    -338.8333
 -----------------------------------------------------------------
 DrvMan is completing analytic gradient of the MP2 energy
 MP2 relaxed dipole moment
            1
    1   0.0659170
    2  -0.0000402
    3  -0.5887377
	Magnitude:	 0.592 au	 1.506 Debye
 MP2 energy read as -523.274648
 Full Analytical Gradient of MP2 Energy (in au.)
             1             2             3             4             5
    1   -0.00023796    0.00209628   -0.00229889   -0.00023910    0.00043039
    2   -0.00200759   -0.00000022   -0.00000055    0.00200800    0.00000017
    3    0.00154626    0.00018685   -0.00157687    0.00154654   -0.00082569
             6             7             8             9            10
    1   -0.00968258   -0.00037779    0.00040634    0.00001482   -0.00014748
    2    0.00000066   -0.00010189   -0.00034056    0.00009958   -0.00040426
    3    0.00675455   -0.00035395   -0.00006711    0.00048310    0.00003979
            11            12            13            14            15
    1    0.00021693   -0.00014764    0.00001503   -0.00037753    0.00040661
    2    0.00000013    0.00040459   -0.00009961    0.00010174    0.00034060
    3   -0.00036698    0.00003960    0.00048304   -0.00035418   -0.00006699
            16            17            18
    1    0.00019027    0.00019004    0.00954225
    2    0.00028769   -0.00028788   -0.00000061
    3   -0.00118149   -0.00118137   -0.00510511
 Gradient time:  CPU 0.15 s  wall 0.12 s
 Geometry Optimization Parameters
   NAtoms,    NIC,     NZ,  NCons,   NDum,   NFix, NCnnct, MaxDiis
       18     123       0       0       0       0       0       0


** GEOMETRY OPTIMIZATION IN DELOCALIZED INTERNAL COORDINATES **
   Searching for a Minimum

   Optimization Cycle:   1

                       Coordinates (Angstroms)
     ATOM                X               Y               Z
      1  C        -0.4407349946   -1.5482500753    1.0861874007
      2  Si       -0.4053745658   -0.0000008458    0.0148720063
      3  C        -1.8523477164   -0.0000078221   -1.2000901717
      4  C        -0.4407277165    1.5482725816    1.0861539212
      5  C         1.2189052032   -0.0000174727   -0.9756999815
      6  O         2.2757549389    0.0000094967    0.0050684805
      7  H         0.4434539826   -1.5801183800    1.7287733795
      8  H        -1.3286226284   -1.5774432971    1.7254862212
      9  H        -0.4407902565   -2.4553214072    0.4734563195
     10  H        -1.8351253978    0.8841576855   -1.8452232638
     11  H        -2.8086919782   -0.0000067800   -0.6675084471
     12  H        -1.8351282457   -0.8841665843   -1.8452316783
     13  H        -0.4408557002    2.4553292989    0.4734012586
     14  H         0.4435087713    1.5801842828    1.7286729949
     15  H        -1.3285684205    1.5774499146    1.7255177254
     16  H         1.2828395343    0.8849281275   -1.6278865406
     17  H         1.2828358805   -0.8850019270   -1.6278345885
     18  H         3.1237802135   -0.0000383347   -0.4696863259
   Point Group: c1    Number of degrees of freedom:    48


   Energy is   -523.274648015


 Attempting to Generate Delocalized Internal Coordinates

 48 Hessian modes will be used to form the next step
  Hessian Eigenvalues:
     0.002000    0.002473    0.003309    0.003309    0.010114    0.043940
     0.049358    0.050131    0.053299    0.053419    0.054163    0.054164
     0.054317    0.055780    0.055780    0.056871    0.108241    0.134272
     0.143656    0.144235    0.160000    0.160000    0.160000    0.160000
     0.160000    0.160000    0.160000    0.160000    0.160000    0.160000
     0.194590    0.201727    0.205293    0.205294    0.218787    0.335536
     0.335536    0.342816    0.342817    0.342818    0.342829    0.342829
     0.342993    0.342994    0.344123    0.344123    0.393372    0.529959

 Minimum Search - Taking Simple RFO Step
 Searching for Lamda that Minimizes Along All modes
 Value Taken    Lamda =  -0.00044366
 Step Taken.  Stepsize is  0.043687

                             Maximum     Tolerance    Cnvgd?
         Gradient           0.007449      0.000020      NO
         Displacement       0.020946      0.000120      NO
         Energy change     *********      0.000000      NO


 New Cartesian Coordinates Obtained by Inverse Iteration

 Displacement from previous Coordinates is:  0.084574
 ----------------------------------------------------------------
             Standard Nuclear Orientation (Angstroms)
    I     Atom           X                Y                Z
 ----------------------------------------------------------------
    1      C      -0.4422298321    -1.5425233332     1.0842955208
    2      Si     -0.4050718627    -0.0000005835     0.0176551307
    3      C      -1.8437888863    -0.0000083824    -1.1948438507
    4      C      -0.4422210254     1.5425453898     1.0842621047
    5      C       1.2163081678    -0.0000164587    -0.9705148635
    6      O       2.2845832486     0.0000061519    -0.0042463885
    7      H       0.4385043303    -1.5728801088     1.7330054258
    8      H      -1.3353084746    -1.5708493317     1.7173206706
    9      H      -0.4380739509    -2.4484964289     0.4689870201
   10      H      -1.8246926255     0.8853570589    -1.8391991035
   11      H      -2.8006809612    -0.0000039201    -0.6620778858
   12      H      -1.8246975744    -0.8853763107    -1.8391953206
   13      H      -0.4381222955     2.4485045364     0.4689327384
   14      H       0.4385493708     1.5729385745     1.7329215250
   15      H      -1.3352644645     1.5708621460     1.7173367767
   16      H       1.2751703166     0.8854691401    -1.6199373270
   17      H       1.2751673637    -0.8855345320    -1.6198936538
   18      H       3.1159800592    -0.0000351464    -0.4863798089
 ----------------------------------------------------------------
 Molecular Point Group                 C1    NOp =  1
 Largest Abelian Subgroup              C1    NOp =  1
 Nuclear Repulsion Energy =   321.6501983204 hartrees
 There are       29 alpha and       29 beta electrons
 Applying Cartesian multipole field
    Component          Value
    ---------          -----
     (2,0,0)        1.00000E-11
     (0,2,0)        2.00000E-11
     (0,0,2)       -3.00000E-11
 Nucleus-field energy     =     0.0000000019 hartrees
 Requested basis set is 6-311+G(d,p)
 There are 91 shells and 212 basis functions
 A cutoff of  1.0D-11 yielded   3845 shell pairs
 There are     21362 function pairs (     22621 Cartesian)
 Smallest overlap matrix eigenvalue = 1.63E-04
 Guess MOs from SCF MO coefficient file
 Reading MOs from coefficient file
 Reading MOs from coefficient file

 -----------------------------------------------------------------------
  General SCF calculation program by
  Eric Jon Sundstrom, Paul Horn, Yuezhi Mao, Dmitri Zuev, Alec White,
  David Stuck, Shaama M.S., Shane Yost, Joonho Lee, David Small,
  Daniel Levine, Susi Lehtola, Hugh Burton, Evgeny Epifanovsky
 -----------------------------------------------------------------------
 Hartree-Fock
 using 4 threads for integral computing
 -------------------------------------------------------
 OpenMP Integral computing Module                
 Release: version 1.0, May 2013, Q-Chem Inc. Pittsburgh 
 -------------------------------------------------------
 A restricted SCF calculation will be
 performed using DIIS
 SCF converges when DIIS error is below 1.0e-08
 ---------------------------------------
  Cycle       Energy         DIIS error
 ---------------------------------------
    1    -522.3585270409      3.51e-04  
    2    -522.3486559739      4.82e-05  
    3    -522.3486731771      1.89e-05  
    4    -522.3486751794      7.51e-06  
    5    -522.3486755910      2.03e-06  
    6    -522.3486756310      3.84e-07  
    7    -522.3486756327      1.33e-07  
    8    -522.3486756329      3.44e-08  
    9    -522.3486756329      9.17e-09  Convergence criterion met
 ---------------------------------------
 SCF time:   CPU 28.77s  wall 7.00s 
 SCF   energy in the final basis set =     -522.3486756329
 Total energy in the final basis set =     -522.3486756329
 
 Components of the MP2 correlation energy:
        aaaa  correlation energy =        -0.1070845687 au
        abab  correlation energy =        -0.7120436411 au
        bbbb  correlation energy =        -0.1070845687 au
        non-Brillouin singles    =        -0.0000000000 au

 Total  MP2   correlation energy =                    -0.92621278 au
        MP2         total energy =                  -523.27488841 au
  Entering Z-vector solver.
   1         0           1      0.000183    0.000183
   2         0           1      0.000050    0.000050
   3         0           1      0.000014    0.000014
   4         0           1      0.000004    0.000004
   5         1           0      0.000000    0.000000    Roots Converged
 
 --------------------------------------------------------------
 
                    Orbital Energies (a.u.)
 --------------------------------------------------------------
 
 Alpha MOs
 -- Occupied --
-68.749 -20.556 -11.254 -11.198 -11.191 -11.191  -6.096  -4.203
 -4.203  -4.203  -1.350  -0.968  -0.920  -0.916  -0.900  -0.691
 -0.627  -0.617  -0.570  -0.557  -0.553  -0.537  -0.534  -0.532
 -0.524  -0.451  -0.427  -0.422  -0.415
 -- Virtual --
  0.052   0.070   0.073   0.075   0.105   0.115   0.120   0.125
  0.130   0.146   0.153   0.153   0.159   0.179   0.182   0.189
  0.190   0.194   0.198   0.220   0.259   0.264   0.271   0.274
  0.278   0.295   0.298   0.309   0.328   0.335   0.343   0.353
  0.368   0.371   0.374   0.381   0.402   0.416   0.429   0.476
  0.476   0.484   0.487   0.495   0.508   0.572   0.634   0.645
  0.656   0.677   0.678   0.702   0.706   0.721   0.728   0.732
  0.797   0.835   0.844   0.858   0.862   0.883   0.897   0.898
  0.908   0.916   0.926   0.952   0.958   0.979   0.991   1.093
  1.108   1.117   1.120   1.169   1.177   1.216   1.270   1.284
  1.298   1.360   1.366   1.387   1.414   1.486   1.495   1.504
  1.579   1.631   1.712   1.726   1.735   1.759   1.768   1.785
  1.805   1.821   1.827   1.843   1.852   1.884   1.892   1.895
  1.902   1.931   1.940   1.965   1.997   2.011   2.035   2.043
  2.048   2.082   2.109   2.113   2.160   2.221   2.292   2.334
  2.356   2.365   2.385   2.480   2.503   2.504   2.518   2.549
  2.569   2.574   2.736   2.780   2.792   2.805   2.806   2.829
  2.852   2.885   2.891   2.908   2.909   2.928   2.936   2.951
  2.956   2.971   2.975   2.976   2.998   3.106   3.250   3.258
  3.271   3.321   3.475   3.489   3.582   3.609   3.722   3.728
  3.789   4.130   4.140   4.145   4.158   4.179   4.189   4.196
  4.297   4.435   5.589   5.936   6.194   6.321  12.434  12.444
 12.452  24.976  25.119  25.119  25.142  51.618 144.077
 --------------------------------------------------------------
 
          Ground-State Mulliken Net Atomic Charges

     Atom                 Charge (a.u.)
  ----------------------------------------
      1 C                    -0.777834
      2 Si                    1.126319
      3 C                    -0.758474
      4 C                    -0.777839
      5 C                    -0.551550
      6 O                    -0.323132
      7 H                     0.183476
      8 H                     0.162346
      9 H                     0.163942
     10 H                     0.161938
     11 H                     0.166908
     12 H                     0.161938
     13 H                     0.163942
     14 H                     0.183478
     15 H                     0.162347
     16 H                     0.148121
     17 H                     0.148120
     18 H                     0.255956
  ----------------------------------------
  Sum of atomic charges =     0.000000

 -----------------------------------------------------------------
                    Cartesian Multipole Moments
 -----------------------------------------------------------------
    Charge (ESU x 10^10)
                 0.0000
    Dipole Moment (Debye)
         X       0.1128      Y      -0.0001      Z      -1.5005
       Tot       1.5047
    Quadrupole Moments (Debye-Ang)
        XX     -45.1517     XY      -0.0003     YY     -49.0732
        XZ      -4.4253     YZ       0.0001     ZZ     -47.8228
    Octopole Moments (Debye-Ang^2)
       XXX      30.9392    XXY      -0.0008    XYY       3.4866
       YYY      -0.0002    XXZ      -6.4808    XYZ       0.0001
       YYZ      -6.3008    XZZ       6.5192    YZZ       0.0001
       ZZZ      -0.5477
    Hexadecapole Moments (Debye-Ang^3)
      XXXX    -467.6969   XXXY      -0.0025   XXYY    -152.6995
      XYYY      -0.0004   YYYY    -342.0188   XXXZ     -44.4625
      XXYZ       0.0004   XYYZ       1.8648   YYYZ       0.0000
      XXZZ    -145.8816   XYZZ      -0.0001   YYZZ    -113.8917
      XZZZ      -3.6767   YZZZ       0.0001   ZZZZ    -337.3565
 -----------------------------------------------------------------
 DrvMan is completing analytic gradient of the MP2 energy
 MP2 relaxed dipole moment
            1
    1   0.0443695
    2  -0.0000343
    3  -0.5903355
	Magnitude:	 0.592 au	 1.505 Debye
 MP2 energy read as -523.274888
 Full Analytical Gradient of MP2 Energy (in au.)
             1             2             3             4             5
    1   -0.00011519    0.00029766   -0.00038746   -0.00011573   -0.00027574
    2   -0.00008752   -0.00000006   -0.00000026    0.00008764    0.00000013
    3    0.00008301    0.00023496    0.00007493    0.00008307   -0.00064754
             6             7             8             9            10
    1   -0.00052266    0.00010931    0.00001859   -0.00000956    0.00009593
    2    0.00000014    0.00013263    0.00002676    0.00000331    0.00004238
    3    0.00072265   -0.00006956   -0.00002290   -0.00005855    0.00001433
            11            12            13            14            15
    1    0.00001370    0.00009578   -0.00000957    0.00010950    0.00001878
    2    0.00000003   -0.00004219   -0.00000334   -0.00013272   -0.00002674
    3    0.00002923    0.00001422   -0.00005858   -0.00006967   -0.00002283
            16            17            18
    1    0.00020826    0.00020808    0.00026033
    2   -0.00013697    0.00013688   -0.00000010
    3   -0.00006013   -0.00006010   -0.00018654
 Gradient time:  CPU 0.13 s  wall 0.09 s
 Geometry Optimization Parameters
   NAtoms,    NIC,     NZ,  NCons,   NDum,   NFix, NCnnct, MaxDiis
       18     123       0       0       0       0       0       0

 Cartesian Hessian Update
 Hessian Updated using BFGS Update


** GEOMETRY OPTIMIZATION IN DELOCALIZED INTERNAL COORDINATES **
   Searching for a Minimum

   Optimization Cycle:   2

                       Coordinates (Angstroms)
     ATOM                X               Y               Z
      1  C        -0.4422298321   -1.5425233332    1.0842955208
      2  Si       -0.4050718627   -0.0000005835    0.0176551307
      3  C        -1.8437888863   -0.0000083824   -1.1948438507
      4  C        -0.4422210254    1.5425453898    1.0842621047
      5  C         1.2163081678   -0.0000164587   -0.9705148635
      6  O         2.2845832486    0.0000061519   -0.0042463885
      7  H         0.4385043303   -1.5728801088    1.7330054258
      8  H        -1.3353084746   -1.5708493317    1.7173206706
      9  H        -0.4380739509   -2.4484964289    0.4689870201
     10  H        -1.8246926255    0.8853570589   -1.8391991035
     11  H        -2.8006809612   -0.0000039201   -0.6620778858
     12  H        -1.8246975744   -0.8853763107   -1.8391953206
     13  H        -0.4381222955    2.4485045364    0.4689327384
     14  H         0.4385493708    1.5729385745    1.7329215250
     15  H        -1.3352644645    1.5708621460    1.7173367767
     16  H         1.2751703166    0.8854691401   -1.6199373270
     17  H         1.2751673637   -0.8855345320   -1.6198936538
     18  H         3.1159800592   -0.0000351464   -0.4863798089
   Point Group: c1    Number of degrees of freedom:    48


   Energy is   -523.274888411

 Hessian Updated using BFGS Update

 38 Hessian modes will be used to form the next step
  Hessian Eigenvalues:
     0.002000    0.002473    0.003296    0.003309    0.010114    0.043935
     0.049358    0.049778    0.053299    0.053384    0.054106    0.054164
     0.054317    0.055723    0.055780    0.056969    0.107506    0.134272
     0.142860    0.144235    0.158450    0.161577    0.188976    0.195418
     0.203197    0.205293    0.219800    0.336435    0.342811    0.342816
     0.342822    0.342934    0.342994    0.343141    0.344123    0.344600
     0.392848    0.538444

 Minimum Search - Taking Simple RFO Step
 Searching for Lamda that Minimizes Along All modes
 Value Taken    Lamda =  -0.00002029
 Step Taken.  Stepsize is  0.020994

                             Maximum     Tolerance    Cnvgd?
         Gradient           0.001102      0.000020      NO
         Displacement       0.015915      0.000120      NO
         Energy change     -0.000240      0.000000      NO


 New Cartesian Coordinates Obtained by Inverse Iteration

 Displacement from previous Coordinates is:  0.048209
 ----------------------------------------------------------------
             Standard Nuclear Orientation (Angstroms)
    I     Atom           X                Y                Z
 ----------------------------------------------------------------
    1      C      -0.4434768111    -1.5428487033     1.0863235193
    2      Si     -0.4041127652    -0.0000004805     0.0202563503
    3      C      -1.8399127590    -0.0000092424    -1.1949720931
    4      C      -0.4434677962     1.5428706446     1.0862904105
    5      C       1.2162342304    -0.0000158468    -0.9692302017
    6      O       2.2918510626     0.0000032221    -0.0115853842
    7      H       0.4335537381    -1.5734930722     1.7399524388
    8      H      -1.3397196849    -1.5725762944     1.7149181297
    9      H      -0.4355541534    -2.4486767537     0.4708889567
   10      H      -1.8204688474     0.8852677228    -1.8393969173
   11      H      -2.7977704820    -0.0000015680    -0.6639033466
   12      H      -1.8204754844    -0.8852957288    -1.8393838095
   13      H      -0.4355852084     2.4486852603     0.4708355916
   14      H       0.4335883417     1.5735440018     1.7398838076
   15      H      -1.3396861453     1.5725962567     1.7149198629
   16      H       1.2701090161     0.8856727000    -1.6188919302
   17      H       1.2701066867    -0.8857318812    -1.6188548484
   18      H       3.1188979655    -0.0000317755    -0.4996218258
 ----------------------------------------------------------------
 Molecular Point Group                 C1    NOp =  1
 Largest Abelian Subgroup              C1    NOp =  1
 Nuclear Repulsion Energy =   321.5492951863 hartrees
 There are       29 alpha and       29 beta electrons
 Applying Cartesian multipole field
    Component          Value
    ---------          -----
     (2,0,0)        1.00000E-11
     (0,2,0)        2.00000E-11
     (0,0,2)       -3.00000E-11
 Nucleus-field energy     =     0.0000000019 hartrees
 Requested basis set is 6-311+G(d,p)
 There are 91 shells and 212 basis functions
 A cutoff of  1.0D-11 yielded   3845 shell pairs
 There are     21372 function pairs (     22631 Cartesian)
 Smallest overlap matrix eigenvalue = 1.63E-04
 Guess MOs from SCF MO coefficient file
 Reading MOs from coefficient file
 Reading MOs from coefficient file

 -----------------------------------------------------------------------
  General SCF calculation program by
  Eric Jon Sundstrom, Paul Horn, Yuezhi Mao, Dmitri Zuev, Alec White,
  David Stuck, Shaama M.S., Shane Yost, Joonho Lee, David Small,
  Daniel Levine, Susi Lehtola, Hugh Burton, Evgeny Epifanovsky
 -----------------------------------------------------------------------
 Hartree-Fock
 using 4 threads for integral computing
 -------------------------------------------------------
 OpenMP Integral computing Module                
 Release: version 1.0, May 2013, Q-Chem Inc. Pittsburgh 
 -------------------------------------------------------
 A restricted SCF calculation will be
 performed using DIIS
 SCF converges when DIIS error is below 1.0e-08
 ---------------------------------------
  Cycle       Energy         DIIS error
 ---------------------------------------
    1    -522.3493684619      1.20e-04  
    2    -522.3487590022      2.07e-05  
    3    -522.3487636005      6.78e-06  
    4    -522.3487641309      3.09e-06  
    5    -522.3487641938      6.35e-07  
    6    -522.3487641989      1.85e-07  
    7    -522.3487641995      6.23e-08  
    8    -522.3487641995      1.77e-08  
    9    -522.3487641995      3.64e-09  Convergence criterion met
 ---------------------------------------
 SCF time:   CPU 28.98s  wall 7.00s 
 SCF   energy in the final basis set =     -522.3487641995
 Total energy in the final basis set =     -522.3487641995
 
 Components of the MP2 correlation energy:
        aaaa  correlation energy =        -0.1070731675 au
        abab  correlation energy =        -0.7119927581 au
        bbbb  correlation energy =        -0.1070731675 au
        non-Brillouin singles    =        -0.0000000000 au

 Total  MP2   correlation energy =                    -0.92613909 au
        MP2         total energy =                  -523.27490329 au
  Entering Z-vector solver.
   1         0           1      0.000183    0.000183
   2         0           1      0.000050    0.000050
   3         0           1      0.000014    0.000014
   4         0           1      0.000004    0.000004
   5         1           0      0.000000    0.000000    Roots Converged
 
 --------------------------------------------------------------
 
                    Orbital Energies (a.u.)
 --------------------------------------------------------------
 
 Alpha MOs
 -- Occupied --
-68.749 -20.556 -11.254 -11.198 -11.191 -11.191  -6.096  -4.203
 -4.203  -4.203  -1.350  -0.968  -0.921  -0.916  -0.900  -0.690
 -0.627  -0.617  -0.571  -0.558  -0.553  -0.537  -0.534  -0.532
 -0.525  -0.451  -0.428  -0.422  -0.415
 -- Virtual --
  0.052   0.070   0.073   0.075   0.105   0.115   0.120   0.125
  0.130   0.146   0.153   0.153   0.159   0.179   0.182   0.189
  0.190   0.194   0.198   0.220   0.259   0.264   0.271   0.274
  0.277   0.295   0.298   0.309   0.328   0.335   0.343   0.353
  0.368   0.371   0.374   0.381   0.402   0.416   0.429   0.476
  0.476   0.484   0.487   0.495   0.508   0.572   0.634   0.645
  0.656   0.677   0.678   0.702   0.706   0.721   0.728   0.732
  0.797   0.835   0.844   0.858   0.861   0.883   0.897   0.897
  0.908   0.917   0.926   0.952   0.957   0.979   0.991   1.093
  1.109   1.116   1.119   1.169   1.176   1.216   1.268   1.284
  1.297   1.359   1.366   1.387   1.414   1.486   1.495   1.504
  1.579   1.631   1.712   1.726   1.735   1.760   1.768   1.784
  1.803   1.822   1.827   1.842   1.852   1.883   1.892   1.895
  1.902   1.930   1.940   1.965   1.997   2.011   2.035   2.042
  2.047   2.082   2.109   2.113   2.161   2.222   2.292   2.334
  2.357   2.366   2.386   2.480   2.503   2.504   2.518   2.549
  2.569   2.574   2.735   2.780   2.792   2.805   2.805   2.829
  2.851   2.884   2.891   2.907   2.909   2.927   2.936   2.951
  2.956   2.971   2.975   2.976   2.998   3.107   3.250   3.258
  3.271   3.322   3.476   3.489   3.583   3.609   3.723   3.729
  3.789   4.130   4.140   4.145   4.157   4.179   4.189   4.196
  4.297   4.435   5.589   5.936   6.196   6.321  12.434  12.444
 12.452  24.976  25.119  25.119  25.142  51.618 144.076
 --------------------------------------------------------------
 
          Ground-State Mulliken Net Atomic Charges

     Atom                 Charge (a.u.)
  ----------------------------------------
      1 C                    -0.776923
      2 Si                    1.125217
      3 C                    -0.758726
      4 C                    -0.776926
      5 C                    -0.551134
      6 O                    -0.323127
      7 H                     0.183162
      8 H                     0.162354
      9 H                     0.163950
     10 H                     0.162079
     11 H                     0.166972
     12 H                     0.162079
     13 H                     0.163950
     14 H                     0.183163
     15 H                     0.162354
     16 H                     0.147922
     17 H                     0.147921
     18 H                     0.255712
  ----------------------------------------
  Sum of atomic charges =     0.000000

 -----------------------------------------------------------------
                    Cartesian Multipole Moments
 -----------------------------------------------------------------
    Charge (ESU x 10^10)
                 0.0000
    Dipole Moment (Debye)
         X       0.0899      Y      -0.0001      Z      -1.5005
       Tot       1.5032
    Quadrupole Moments (Debye-Ang)
        XX     -45.2128     XY      -0.0002     YY     -49.0599
        XZ      -4.4455     YZ       0.0000     ZZ     -47.7944
    Octopole Moments (Debye-Ang^2)
       XXX      30.5293    XXY      -0.0007    XYY       3.4377
       YYY      -0.0001    XXZ      -6.6762    XYZ       0.0001
       YYZ      -6.2955    XZZ       6.5473    YZZ       0.0002
       ZZZ      -0.5847
    Hexadecapole Moments (Debye-Ang^3)
      XXXX    -468.4129   XXXY      -0.0023   XXYY    -152.8371
      XYYY      -0.0002   YYYY    -342.0699   XXXZ     -44.4957
      XXYZ       0.0004   XYYZ       2.0662   YYYZ       0.0000
      XXZZ    -145.7667   XYZZ      -0.0001   YYZZ    -113.9528
      XZZZ      -3.0563   YZZZ       0.0000   ZZZZ    -337.7679
 -----------------------------------------------------------------
 DrvMan is completing analytic gradient of the MP2 energy
 MP2 relaxed dipole moment
            1
    1   0.0353640
    2  -0.0000287
    3  -0.5903429
	Magnitude:	 0.591 au	 1.503 Debye
 MP2 energy read as -523.274903
 Full Analytical Gradient of MP2 Energy (in au.)
             1             2             3             4             5
    1    0.00002558   -0.00013602   -0.00011656    0.00002539   -0.00033154
    2   -0.00003802   -0.00000003   -0.00000012    0.00003806    0.00000009
    3   -0.00001984    0.00001447    0.00013543   -0.00001984   -0.00041285
             6             7             8             9            10
    1    0.00046137    0.00004386    0.00000743   -0.00001203    0.00003504
    2    0.00000008    0.00006347    0.00002078   -0.00000010    0.00001799
    3    0.00006632   -0.00003814   -0.00001409   -0.00001243    0.00000808
            11            12            13            14            15
    1    0.00002193    0.00003494   -0.00001208    0.00004394    0.00000751
    2    0.00000000   -0.00001791    0.00000009   -0.00006352   -0.00002076
    3    0.00001007    0.00000803   -0.00001244   -0.00003820   -0.00001403
            16            17            18
    1    0.00012654    0.00012644   -0.00035175
    2   -0.00007788    0.00007782   -0.00000006
    3    0.00004089    0.00004090    0.00025768
 Gradient time:  CPU 0.13 s  wall 0.09 s
 Geometry Optimization Parameters
   NAtoms,    NIC,     NZ,  NCons,   NDum,   NFix, NCnnct, MaxDiis
       18     123       0       0       0       0       0       0

 Cartesian Hessian Update
 Hessian Updated using BFGS Update


** GEOMETRY OPTIMIZATION IN DELOCALIZED INTERNAL COORDINATES **
   Searching for a Minimum

   Optimization Cycle:   3

                       Coordinates (Angstroms)
     ATOM                X               Y               Z
      1  C        -0.4434768111   -1.5428487033    1.0863235193
      2  Si       -0.4041127652   -0.0000004805    0.0202563503
      3  C        -1.8399127590   -0.0000092424   -1.1949720931
      4  C        -0.4434677962    1.5428706446    1.0862904105
      5  C         1.2162342304   -0.0000158468   -0.9692302017
      6  O         2.2918510626    0.0000032221   -0.0115853842
      7  H         0.4335537381   -1.5734930722    1.7399524388
      8  H        -1.3397196849   -1.5725762944    1.7149181297
      9  H        -0.4355541534   -2.4486767537    0.4708889567
     10  H        -1.8204688474    0.8852677228   -1.8393969173
     11  H        -2.7977704820   -0.0000015680   -0.6639033466
     12  H        -1.8204754844   -0.8852957288   -1.8393838095
     13  H        -0.4355852084    2.4486852603    0.4708355916
     14  H         0.4335883417    1.5735440018    1.7398838076
     15  H        -1.3396861453    1.5725962567    1.7149198629
     16  H         1.2701090161    0.8856727000   -1.6188919302
     17  H         1.2701066867   -0.8857318812   -1.6188548484
     18  H         3.1188979655   -0.0000317755   -0.4996218258
   Point Group: c1    Number of degrees of freedom:    48


   Energy is   -523.274903293

 Hessian Updated using BFGS Update

 37 Hessian modes will be used to form the next step
  Hessian Eigenvalues:
     0.002000    0.002473    0.003085    0.003309    0.010114    0.035477
     0.044182    0.053299    0.053448    0.054031    0.054164    0.054317
     0.055261    0.055780    0.055889    0.099031    0.126277    0.134272
     0.144235    0.155978    0.160240    0.163030    0.185839    0.196703
     0.203053    0.211264    0.336075    0.342788    0.342816    0.342823
     0.342924    0.342994    0.343142    0.344123    0.344550    0.395297
     0.582482

 Minimum Search - Taking Simple RFO Step
 Searching for Lamda that Minimizes Along All modes
 Value Taken    Lamda =  -0.00001269
 Step Taken.  Stepsize is  0.026926

                             Maximum     Tolerance    Cnvgd?
         Gradient           0.000672      0.000020      NO
         Displacement       0.020680      0.000120      NO
         Energy change     -0.000015      0.000000      NO


 New Cartesian Coordinates Obtained by Inverse Iteration

 Displacement from previous Coordinates is:  0.062393
 ----------------------------------------------------------------
             Standard Nuclear Orientation (Angstroms)
    I     Atom           X                Y                Z
 ----------------------------------------------------------------
    1      C      -0.4451976419    -1.5431357685     1.0895606039
    2      Si     -0.4020480472    -0.0000005698     0.0238239609
    3      C      -1.8345169768    -0.0000104344    -1.1953223280
    4      C      -0.4451885812     1.5431573396     1.0895277067
    5      C       1.2161183569    -0.0000155184    -0.9685779843
    6      O       2.2993036869    -0.0000006025    -0.0208074763
    7      H       0.4271585697    -1.5740985277     1.7493854224
    8      H      -1.3455012133    -1.5744478922     1.7123870908
    9      H      -0.4324440409    -2.4487294998     0.4738734177
   10      H      -1.8141305887     0.8851727352    -1.8398202759
   11      H      -2.7938011235     0.0000010436    -0.6666930619
   12      H      -1.8141389128    -0.8852111494    -1.8397964840
   13      H      -0.4324496171     2.4487380586     0.4738210900
   14      H       0.4271781833     1.5741380861     1.7493376842
   15      H      -1.3454822271     1.5744784932     1.7123681638
   16      H       1.2637191243     0.8857681616    -1.6189202888
   17      H       1.2637176290    -0.8858204871    -1.6188914049
   18      H       3.1218143242    -0.0000250068    -0.5168271258
 ----------------------------------------------------------------
 Molecular Point Group                 C1    NOp =  1
 Largest Abelian Subgroup              C1    NOp =  1
 Nuclear Repulsion Energy =   321.4352550007 hartrees
 There are       29 alpha and       29 beta electrons
 Applying Cartesian multipole field
    Component          Value
    ---------          -----
     (2,0,0)        1.00000E-11
     (0,2,0)        2.00000E-11
     (0,0,2)       -3.00000E-11
 Nucleus-field energy     =     0.0000000019 hartrees
 Requested basis set is 6-311+G(d,p)
 There are 91 shells and 212 basis functions
 A cutoff of  1.0D-11 yielded   3845 shell pairs
 There are     21372 function pairs (     22631 Cartesian)
 Smallest overlap matrix eigenvalue = 1.64E-04
 Guess MOs from SCF MO coefficient file
 Reading MOs from coefficient file
 Reading MOs from coefficient file

 -----------------------------------------------------------------------
  General SCF calculation program by
  Eric Jon Sundstrom, Paul Horn, Yuezhi Mao, Dmitri Zuev, Alec White,
  David Stuck, Shaama M.S., Shane Yost, Joonho Lee, David Small,
  Daniel Levine, Susi Lehtola, Hugh Burton, Evgeny Epifanovsky
 -----------------------------------------------------------------------
 Hartree-Fock
 using 4 threads for integral computing
 -------------------------------------------------------
 OpenMP Integral computing Module                
 Release: version 1.0, May 2013, Q-Chem Inc. Pittsburgh 
 -------------------------------------------------------
 A restricted SCF calculation will be
 performed using DIIS
 SCF converges when DIIS error is below 1.0e-08
 ---------------------------------------
  Cycle       Energy         DIIS error
 ---------------------------------------
    1    -522.3487716212      1.39e-04  
    2    -522.3487972364      2.50e-05  
    3    -522.3488038753      8.06e-06  
    4    -522.3488046255      3.67e-06  
    5    -522.3488047203      7.59e-07  
    6    -522.3488047276      2.50e-07  
    7    -522.3488047284      8.07e-08  
    8    -522.3488047285      2.03e-08  
    9    -522.3488047285      3.93e-09  Convergence criterion met
 ---------------------------------------
 SCF time:   CPU 29.20s  wall 7.00s 
 SCF   energy in the final basis set =     -522.3488047285
 Total energy in the final basis set =     -522.3488047285
 
 Components of the MP2 correlation energy:
        aaaa  correlation energy =        -0.1070661350 au
        abab  correlation energy =        -0.7119735178 au
        bbbb  correlation energy =        -0.1070661350 au
        non-Brillouin singles    =        -0.0000000000 au

 Total  MP2   correlation energy =                    -0.92610579 au
        MP2         total energy =                  -523.27491052 au
  Entering Z-vector solver.
   1         0           1      0.000182    0.000182
   2         0           1      0.000050    0.000050
   3         0           1      0.000014    0.000014
   4         0           1      0.000004    0.000004
   5         1           0      0.000000    0.000000    Roots Converged
 
 --------------------------------------------------------------
 
                    Orbital Energies (a.u.)
 --------------------------------------------------------------
 
 Alpha MOs
 -- Occupied --
-68.749 -20.556 -11.253 -11.198 -11.192 -11.192  -6.096  -4.203
 -4.203  -4.203  -1.350  -0.969  -0.921  -0.917  -0.900  -0.690
 -0.627  -0.617  -0.571  -0.558  -0.553  -0.537  -0.534  -0.532
 -0.525  -0.451  -0.428  -0.422  -0.415
 -- Virtual --
  0.052   0.070   0.073   0.076   0.105   0.115   0.120   0.125
  0.130   0.146   0.153   0.153   0.159   0.179   0.182   0.189
  0.190   0.194   0.198   0.220   0.259   0.264   0.271   0.273
  0.277   0.295   0.298   0.309   0.327   0.335   0.343   0.353
  0.369   0.371   0.374   0.381   0.402   0.416   0.430   0.476
  0.476   0.484   0.487   0.494   0.508   0.572   0.634   0.645
  0.655   0.677   0.678   0.701   0.706   0.721   0.728   0.731
  0.797   0.835   0.844   0.857   0.861   0.883   0.897   0.897
  0.908   0.918   0.926   0.952   0.956   0.980   0.991   1.093
  1.109   1.116   1.119   1.169   1.176   1.217   1.266   1.285
  1.297   1.358   1.365   1.387   1.414   1.486   1.496   1.503
  1.578   1.631   1.713   1.726   1.735   1.761   1.768   1.783
  1.802   1.823   1.827   1.842   1.852   1.883   1.892   1.895
  1.902   1.930   1.939   1.965   1.997   2.010   2.035   2.042
  2.047   2.083   2.108   2.113   2.162   2.221   2.293   2.334
  2.357   2.366   2.386   2.480   2.503   2.504   2.518   2.549
  2.568   2.574   2.735   2.780   2.791   2.804   2.805   2.829
  2.851   2.884   2.891   2.907   2.909   2.927   2.936   2.951
  2.956   2.971   2.976   2.976   2.997   3.107   3.249   3.259
  3.271   3.324   3.476   3.488   3.583   3.610   3.724   3.728
  3.789   4.130   4.141   4.145   4.157   4.179   4.189   4.195
  4.296   4.435   5.589   5.936   6.196   6.320  12.434  12.444
 12.450  24.976  25.119  25.119  25.141  51.618 144.076
 --------------------------------------------------------------
 
          Ground-State Mulliken Net Atomic Charges

     Atom                 Charge (a.u.)
  ----------------------------------------
      1 C                    -0.775732
      2 Si                    1.123877
      3 C                    -0.759138
      4 C                    -0.775734
      5 C                    -0.551110
      6 O                    -0.322327
      7 H                     0.182717
      8 H                     0.162411
      9 H                     0.163947
     10 H                     0.162163
     11 H                     0.166965
     12 H                     0.162163
     13 H                     0.163948
     14 H                     0.182718
     15 H                     0.162411
     16 H                     0.147685
     17 H                     0.147685
     18 H                     0.255353
  ----------------------------------------
  Sum of atomic charges =     0.000000

 -----------------------------------------------------------------
                    Cartesian Multipole Moments
 -----------------------------------------------------------------
    Charge (ESU x 10^10)
                 0.0000
    Dipole Moment (Debye)
         X       0.0723      Y      -0.0001      Z      -1.4982
       Tot       1.4999
    Quadrupole Moments (Debye-Ang)
        XX     -45.2856     XY      -0.0002     YY     -49.0481
        XZ      -4.4785     YZ       0.0000     ZZ     -47.7603
    Octopole Moments (Debye-Ang^2)
       XXX      30.0594    XXY      -0.0004    XYY       3.3744
       YYY      -0.0000    XXZ      -6.9062    XYZ       0.0001
       YYZ      -6.2923    XZZ       6.6018    YZZ       0.0002
       ZZZ      -0.6411
    Hexadecapole Moments (Debye-Ang^3)
      XXXX    -469.0040   XXXY      -0.0017   XXYY    -152.9405
      XYYY      -0.0001   YYYY    -342.1233   XXXZ     -44.4965
      XXYZ       0.0003   XYYZ       2.3282   YYYZ       0.0000
      XXZZ    -145.6012   XYZZ      -0.0001   YYZZ    -114.0852
      XZZZ      -2.2644   YZZZ      -0.0000   ZZZZ    -338.5790
 -----------------------------------------------------------------
 DrvMan is completing analytic gradient of the MP2 energy
 MP2 relaxed dipole moment
            1
    1   0.0284636
    2  -0.0000200
    3  -0.5894366
	Magnitude:	 0.590 au	 1.500 Debye
 MP2 energy read as -523.274911
 Full Analytical Gradient of MP2 Energy (in au.)
             1             2             3             4             5
    1    0.00007007   -0.00020573    0.00011303    0.00007016   -0.00003139
    2    0.00000591    0.00000001    0.00000002   -0.00000595   -0.00000000
    3   -0.00005948   -0.00007708    0.00005981   -0.00005951   -0.00005643
             6             7             8             9            10
    1    0.00025334   -0.00000642   -0.00001123   -0.00001105   -0.00002402
    2    0.00000007    0.00000415   -0.00001424   -0.00000360   -0.00000660
    3   -0.00004414   -0.00000492    0.00001622    0.00001301   -0.00000451
            11            12            13            14            15
    1    0.00000771   -0.00002404   -0.00001110   -0.00000642   -0.00001123
    2   -0.00000000    0.00000658    0.00000360   -0.00000416    0.00001425
    3    0.00001731   -0.00000451    0.00001302   -0.00000493    0.00001624
            16            17            18
    1    0.00001606    0.00001605   -0.00020379
    2    0.00000307   -0.00000307   -0.00000005
    3    0.00005158    0.00005156    0.00007676
 Gradient time:  CPU 0.14 s  wall 0.10 s
 Geometry Optimization Parameters
   NAtoms,    NIC,     NZ,  NCons,   NDum,   NFix, NCnnct, MaxDiis
       18     123       0       0       0       0       0       0

 Cartesian Hessian Update
 Hessian Updated using BFGS Update


** GEOMETRY OPTIMIZATION IN DELOCALIZED INTERNAL COORDINATES **
   Searching for a Minimum

   Optimization Cycle:   4

                       Coordinates (Angstroms)
     ATOM                X               Y               Z
      1  C        -0.4451976419   -1.5431357685    1.0895606039
      2  Si       -0.4020480472   -0.0000005698    0.0238239609
      3  C        -1.8345169768   -0.0000104344   -1.1953223280
      4  C        -0.4451885812    1.5431573396    1.0895277067
      5  C         1.2161183569   -0.0000155184   -0.9685779843
      6  O         2.2993036869   -0.0000006025   -0.0208074763
      7  H         0.4271585697   -1.5740985277    1.7493854224
      8  H        -1.3455012133   -1.5744478922    1.7123870908
      9  H        -0.4324440409   -2.4487294998    0.4738734177
     10  H        -1.8141305887    0.8851727352   -1.8398202759
     11  H        -2.7938011235    0.0000010436   -0.6666930619
     12  H        -1.8141389128   -0.8852111494   -1.8397964840
     13  H        -0.4324496171    2.4487380586    0.4738210900
     14  H         0.4271781833    1.5741380861    1.7493376842
     15  H        -1.3454822271    1.5744784932    1.7123681638
     16  H         1.2637191243    0.8857681616   -1.6189202888
     17  H         1.2637176290   -0.8858204871   -1.6188914049
     18  H         3.1218143242   -0.0000250068   -0.5168271258
   Point Group: c1    Number of degrees of freedom:    48


   Energy is   -523.274910516

 Hessian Updated using BFGS Update

 38 Hessian modes will be used to form the next step
  Hessian Eigenvalues:
     0.002000    0.002473    0.003001    0.003309    0.010114    0.030870
     0.044366    0.049358    0.053549    0.054064    0.055218    0.055780
     0.055854    0.099760    0.124200    0.134272    0.144235    0.157758
     0.160078    0.162526    0.163323    0.190761    0.198214    0.204264
     0.205293    0.210816    0.335536    0.335721    0.342816    0.342820
     0.342823    0.342994    0.343054    0.343139    0.344123    0.344626
     0.394228    0.570744

 Minimum Search - Taking Simple RFO Step
 Searching for Lamda that Minimizes Along All modes
 Value Taken    Lamda =   0.00000000
 Step Taken.  Stepsize is  0.005914

                             Maximum     Tolerance    Cnvgd?
         Gradient           0.000133      0.000020      NO
         Displacement       0.004448      0.000120      NO
         Energy change     -0.000007      0.000000      NO


 New Cartesian Coordinates Obtained by Inverse Iteration

 Displacement from previous Coordinates is:  0.012345
 ----------------------------------------------------------------
             Standard Nuclear Orientation (Angstroms)
    I     Atom           X                Y                Z
 ----------------------------------------------------------------
    1      C      -0.4455450403    -1.5430402790     1.0904048543
    2      Si     -0.4013942167    -0.0000007219     0.0245159364
    3      C      -1.8335726605    -0.0000108832    -1.1953561681
    4      C      -0.4455362039     1.5430619505     1.0903715290
    5      C       1.2160423584    -0.0000157016    -0.9689953306
    6      O       2.3003464352    -0.0000026409    -0.0227449619
    7      H       0.4259094310    -1.5740147102     1.7514428229
    8      H      -1.3466822910    -1.5743382194     1.7119832266
    9      H      -0.4318694939    -2.4486241349     0.4747102470
   10      H      -1.8126550573     0.8851712136    -1.8398454866
   11      H      -2.7932547994    -0.0000005201    -0.6674409510
   12      H      -1.8126616550    -0.8852099411    -1.8398224411
   13      H      -0.4318672481     2.4486326076     0.4746573865
   14      H       0.4259245960     1.5740510147     1.7514004344
   15      H      -1.3466675478     1.5743727122     1.7119578654
   16      H       1.2625018634     0.8856791738    -1.6196403046
   17      H       1.2624998548    -0.8857299020    -1.6196141115
   18      H       3.1225925790    -0.0000225567    -0.5195558365
 ----------------------------------------------------------------
 Molecular Point Group                 C1    NOp =  1
 Largest Abelian Subgroup              C1    NOp =  1
 Nuclear Repulsion Energy =   321.4127052192 hartrees
 There are       29 alpha and       29 beta electrons
 Applying Cartesian multipole field
    Component          Value
    ---------          -----
     (2,0,0)        1.00000E-11
     (0,2,0)        2.00000E-11
     (0,0,2)       -3.00000E-11
 Nucleus-field energy     =     0.0000000019 hartrees
 Requested basis set is 6-311+G(d,p)
 There are 91 shells and 212 basis functions
 A cutoff of  1.0D-11 yielded   3845 shell pairs
 There are     21372 function pairs (     22631 Cartesian)
 Smallest overlap matrix eigenvalue = 1.64E-04
 Guess MOs from SCF MO coefficient file
 Reading MOs from coefficient file
 Reading MOs from coefficient file

 -----------------------------------------------------------------------
  General SCF calculation program by
  Eric Jon Sundstrom, Paul Horn, Yuezhi Mao, Dmitri Zuev, Alec White,
  David Stuck, Shaama M.S., Shane Yost, Joonho Lee, David Small,
  Daniel Levine, Susi Lehtola, Hugh Burton, Evgeny Epifanovsky
 -----------------------------------------------------------------------
 Hartree-Fock
 using 4 threads for integral computing
 -------------------------------------------------------
 OpenMP Integral computing Module                
 Release: version 1.0, May 2013, Q-Chem Inc. Pittsburgh 
 -------------------------------------------------------
 A restricted SCF calculation will be
 performed using DIIS
 SCF converges when DIIS error is below 1.0e-08
 ---------------------------------------
  Cycle       Energy         DIIS error
 ---------------------------------------
    1    -522.3486956477      2.36e-05  
    2    -522.3488075207      4.31e-06  
    3    -522.3488077291      1.43e-06  
    4    -522.3488077536      5.38e-07  
    5    -522.3488077565      9.73e-08  
    6    -522.3488077567      3.18e-08  
    7    -522.3488077567      1.37e-08  
    8    -522.3488077567      3.57e-09  Convergence criterion met
 ---------------------------------------
 SCF time:   CPU 25.91s  wall 6.00s 
 SCF   energy in the final basis set =     -522.3488077567
 Total energy in the final basis set =     -522.3488077567
 
 Components of the MP2 correlation energy:
        aaaa  correlation energy =        -0.1070647639 au
        abab  correlation energy =        -0.7119737208 au
        bbbb  correlation energy =        -0.1070647639 au
        non-Brillouin singles    =        -0.0000000000 au

 Total  MP2   correlation energy =                    -0.92610325 au
        MP2         total energy =                  -523.27491101 au
  Entering Z-vector solver.
   1         0           1      0.000182    0.000182
   2         0           1      0.000050    0.000050
   3         0           1      0.000014    0.000014
   4         0           1      0.000004    0.000004
   5         1           0      0.000000    0.000000    Roots Converged
 
 --------------------------------------------------------------
 
                    Orbital Energies (a.u.)
 --------------------------------------------------------------
 
 Alpha MOs
 -- Occupied --
-68.749 -20.556 -11.254 -11.198 -11.192 -11.192  -6.096  -4.203
 -4.203  -4.203  -1.350  -0.969  -0.921  -0.917  -0.900  -0.690
 -0.627  -0.617  -0.571  -0.558  -0.553  -0.537  -0.534  -0.532
 -0.525  -0.450  -0.428  -0.422  -0.415
 -- Virtual --
  0.052   0.070   0.073   0.076   0.105   0.115   0.120   0.125
  0.130   0.146   0.153   0.153   0.159   0.179   0.182   0.189
  0.190   0.194   0.198   0.220   0.259   0.264   0.271   0.273
  0.277   0.294   0.298   0.309   0.327   0.335   0.343   0.353
  0.369   0.371   0.374   0.381   0.402   0.416   0.430   0.476
  0.476   0.484   0.487   0.494   0.508   0.572   0.634   0.645
  0.655   0.677   0.678   0.701   0.706   0.721   0.728   0.731
  0.797   0.835   0.844   0.857   0.861   0.883   0.897   0.897
  0.908   0.918   0.926   0.952   0.956   0.980   0.991   1.093
  1.109   1.116   1.119   1.169   1.176   1.217   1.266   1.285
  1.297   1.357   1.365   1.387   1.414   1.486   1.496   1.503
  1.578   1.631   1.713   1.726   1.735   1.761   1.768   1.783
  1.802   1.823   1.826   1.842   1.852   1.883   1.892   1.895
  1.902   1.930   1.939   1.965   1.997   2.010   2.035   2.042
  2.047   2.082   2.108   2.113   2.162   2.221   2.293   2.334
  2.356   2.366   2.386   2.480   2.503   2.504   2.518   2.549
  2.568   2.574   2.735   2.780   2.791   2.804   2.805   2.829
  2.850   2.884   2.891   2.907   2.909   2.926   2.936   2.951
  2.956   2.971   2.976   2.976   2.996   3.107   3.249   3.259
  3.271   3.324   3.476   3.488   3.583   3.610   3.723   3.728
  3.789   4.129   4.140   4.145   4.157   4.179   4.189   4.196
  4.295   4.435   5.589   5.936   6.195   6.320  12.434  12.444
 12.450  24.976  25.119  25.119  25.141  51.618 144.075
 --------------------------------------------------------------
 
          Ground-State Mulliken Net Atomic Charges

     Atom                 Charge (a.u.)
  ----------------------------------------
      1 C                    -0.775468
      2 Si                    1.123572
      3 C                    -0.759265
      4 C                    -0.775470
      5 C                    -0.551034
      6 O                    -0.322231
      7 H                     0.182622
      8 H                     0.162428
      9 H                     0.163947
     10 H                     0.162143
     11 H                     0.166956
     12 H                     0.162143
     13 H                     0.163947
     14 H                     0.182622
     15 H                     0.162428
     16 H                     0.147653
     17 H                     0.147652
     18 H                     0.255355
  ----------------------------------------
  Sum of atomic charges =     0.000000

 -----------------------------------------------------------------
                    Cartesian Multipole Moments
 -----------------------------------------------------------------
    Charge (ESU x 10^10)
                 0.0000
    Dipole Moment (Debye)
         X       0.0727      Y      -0.0000      Z      -1.4968
       Tot       1.4986
    Quadrupole Moments (Debye-Ang)
        XX     -45.2939     XY      -0.0001     YY     -49.0481
        XZ      -4.4846     YZ       0.0000     ZZ     -47.7552
    Octopole Moments (Debye-Ang^2)
       XXX      30.0067    XXY      -0.0003    XYY       3.3637
       YYY       0.0000    XXZ      -6.9320    XYZ       0.0001
       YYZ      -6.2925    XZZ       6.6173    YZZ       0.0002
       ZZZ      -0.6490
    Hexadecapole Moments (Debye-Ang^3)
      XXXX    -468.9548   XXXY      -0.0015   XXYY    -152.9450
      XYYY       0.0000   YYYY    -342.0880   XXXZ     -44.4522
      XXYZ       0.0003   XYYZ       2.3849   YYYZ       0.0000
      XXZZ    -145.5926   XYZZ      -0.0001   YYZZ    -114.1268
      XZZZ      -2.1093   YZZZ      -0.0000   ZZZZ    -338.8387
 -----------------------------------------------------------------
 DrvMan is completing analytic gradient of the MP2 energy
 MP2 relaxed dipole moment
            1
    1   0.0286056
    2  -0.0000164
    3  -0.5888934
	Magnitude:	 0.590 au	 1.499 Debye
 MP2 energy read as -523.274911
 Full Analytical Gradient of MP2 Energy (in au.)
             1             2             3             4             5
    1    0.00001438   -0.00007668    0.00006272    0.00001445    0.00000492
    2    0.00001109    0.00000000    0.00000001   -0.00001110   -0.00000002
    3   -0.00002269   -0.00003332    0.00000530   -0.00002270    0.00000827
             6             7             8             9            10
    1    0.00006807   -0.00000132    0.00000009   -0.00000444   -0.00001814
    2    0.00000006    0.00000076   -0.00001559   -0.00000112   -0.00000577
    3   -0.00000625    0.00000066    0.00001071    0.00000186   -0.00000261
            11            12            13            14            15
    1   -0.00000342   -0.00001814   -0.00000447   -0.00000133    0.00000009
    2   -0.00000000    0.00000576    0.00000112   -0.00000076    0.00001559
    3    0.00001480   -0.00000260    0.00000187    0.00000065    0.00001072
            16            17            18
    1   -0.00000705   -0.00000705   -0.00002266
    2    0.00000638   -0.00000637   -0.00000004
    3    0.00001206    0.00001205    0.00001121
 Gradient time:  CPU 0.14 s  wall 0.09 s
 Geometry Optimization Parameters
   NAtoms,    NIC,     NZ,  NCons,   NDum,   NFix, NCnnct, MaxDiis
       18     123       0       0       0       0       0       0

 Cartesian Hessian Update
 Hessian Updated using BFGS Update


** GEOMETRY OPTIMIZATION IN DELOCALIZED INTERNAL COORDINATES **
   Searching for a Minimum

   Optimization Cycle:   5

                       Coordinates (Angstroms)
     ATOM                X               Y               Z
      1  C        -0.4455450403   -1.5430402790    1.0904048543
      2  Si       -0.4013942167   -0.0000007219    0.0245159364
      3  C        -1.8335726605   -0.0000108832   -1.1953561681
      4  C        -0.4455362039    1.5430619505    1.0903715290
      5  C         1.2160423584   -0.0000157016   -0.9689953306
      6  O         2.3003464352   -0.0000026409   -0.0227449619
      7  H         0.4259094310   -1.5740147102    1.7514428229
      8  H        -1.3466822910   -1.5743382194    1.7119832266
      9  H        -0.4318694939   -2.4486241349    0.4747102470
     10  H        -1.8126550573    0.8851712136   -1.8398454866
     11  H        -2.7932547994   -0.0000005201   -0.6674409510
     12  H        -1.8126616550   -0.8852099411   -1.8398224411
     13  H        -0.4318672481    2.4486326076    0.4746573865
     14  H         0.4259245960    1.5740510147    1.7514004344
     15  H        -1.3466675478    1.5743727122    1.7119578654
     16  H         1.2625018634    0.8856791738   -1.6196403046
     17  H         1.2624998548   -0.8857299020   -1.6196141115
     18  H         3.1225925790   -0.0000225567   -0.5195558365
   Point Group: c1    Number of degrees of freedom:    48


   Energy is   -523.274911005

 Hessian Updated using BFGS Update

 42 Hessian modes will be used to form the next step
  Hessian Eigenvalues:
     0.002000    0.002473    0.002927    0.003309    0.010114    0.028383
     0.043798    0.049358    0.052574    0.053299    0.054040    0.054164
     0.055487    0.055780    0.056491    0.100718    0.117408    0.134272
     0.144235    0.146871    0.158099    0.160172    0.161739    0.166173
     0.183057    0.195312    0.202595    0.205293    0.211772    0.335536
     0.335740    0.342471    0.342816    0.342824    0.342829    0.342994
     0.343082    0.343180    0.344123    0.344680    0.391013    0.574119

 Minimum Search - Taking Simple RFO Step
 Searching for Lamda that Minimizes Along All modes
 Value Taken    Lamda =   0.00000000
 Step Taken.  Stepsize is  0.002362

                             Maximum     Tolerance    Cnvgd?
         Gradient           0.000066      0.000020      NO
         Displacement       0.001623      0.000120      NO
         Energy change     -0.000000      0.000000      NO


 New Cartesian Coordinates Obtained by Inverse Iteration

 Displacement from previous Coordinates is:  0.004667
 ----------------------------------------------------------------
             Standard Nuclear Orientation (Angstroms)
    I     Atom           X                Y                Z
 ----------------------------------------------------------------
    1      C      -0.4456077968    -1.5429505935     1.0907570764
    2      Si     -0.4011123100    -0.0000009275     0.0247291560
    3      C      -1.8332729498    -0.0000110515    -1.1953455834
    4      C      -0.4455991966     1.5429722067     1.0907232915
    5      C       1.2159161581    -0.0000160134    -0.9693583699
    6      O       2.3003652477    -0.0000040816    -0.0234121388
    7      H       0.4255248217    -1.5738940260     1.7522242577
    8      H      -1.3470706351    -1.5740103523     1.7118475401
    9      H      -0.4316658714    -2.4485958091     0.4751584914
   10      H      -1.8119654386     0.8851780430    -1.8398232050
   11      H      -2.7931603000    -0.0000017663    -0.6678447334
   12      H      -1.8119708190    -0.8852159682    -1.8398016793
   13      H      -0.4316588505     2.4486039775     0.4751049059
   14      H       0.4255372258     1.5739281894     1.7521848646
   15      H      -1.3470585145     1.5740473142     1.7118181030
   16      H       1.2621676989     0.8856366396    -1.6200980182
   17      H       1.2621652397    -0.8856870268    -1.6200731843
   18      H       3.1225771943    -0.0000202928    -0.5203620639
 ----------------------------------------------------------------
 Molecular Point Group                 C1    NOp =  1
 Largest Abelian Subgroup              C1    NOp =  1
 Nuclear Repulsion Energy =   321.4120181792 hartrees
 There are       29 alpha and       29 beta electrons
 Applying Cartesian multipole field
    Component          Value
    ---------          -----
     (2,0,0)        1.00000E-11
     (0,2,0)        2.00000E-11
     (0,0,2)       -3.00000E-11
 Nucleus-field energy     =     0.0000000019 hartrees
 Requested basis set is 6-311+G(d,p)
 There are 91 shells and 212 basis functions
 A cutoff of  1.0D-11 yielded   3845 shell pairs
 There are     21372 function pairs (     22631 Cartesian)
 Smallest overlap matrix eigenvalue = 1.64E-04
 Guess MOs from SCF MO coefficient file
 Reading MOs from coefficient file
 Reading MOs from coefficient file

 -----------------------------------------------------------------------
  General SCF calculation program by
  Eric Jon Sundstrom, Paul Horn, Yuezhi Mao, Dmitri Zuev, Alec White,
  David Stuck, Shaama M.S., Shane Yost, Joonho Lee, David Small,
  Daniel Levine, Susi Lehtola, Hugh Burton, Evgeny Epifanovsky
 -----------------------------------------------------------------------
 Hartree-Fock
 using 4 threads for integral computing
 -------------------------------------------------------
 OpenMP Integral computing Module                
 Release: version 1.0, May 2013, Q-Chem Inc. Pittsburgh 
 -------------------------------------------------------
 A restricted SCF calculation will be
 performed using DIIS
 SCF converges when DIIS error is below 1.0e-08
 ---------------------------------------
  Cycle       Energy         DIIS error
 ---------------------------------------
    1    -522.3488260872      7.22e-06  
    2    -522.3488097241      1.42e-06  
    3    -522.3488097467      5.05e-07  
    4    -522.3488097493      1.89e-07  
    5    -522.3488097497      2.97e-08  
    6    -522.3488097497      9.40e-09  Convergence criterion met
 ---------------------------------------
 SCF time:   CPU 19.30s  wall 5.00s 
 SCF   energy in the final basis set =     -522.3488097497
 Total energy in the final basis set =     -522.3488097497
 
 Components of the MP2 correlation energy:
        aaaa  correlation energy =        -0.1070644287 au
        abab  correlation energy =        -0.7119724942 au
        bbbb  correlation energy =        -0.1070644287 au
        non-Brillouin singles    =        -0.0000000000 au

 Total  MP2   correlation energy =                    -0.92610135 au
        MP2         total energy =                  -523.27491110 au
  Entering Z-vector solver.
   1         0           1      0.000182    0.000182
   2         0           1      0.000050    0.000050
   3         0           1      0.000014    0.000014
   4         0           1      0.000004    0.000004
   5         1           0      0.000000    0.000000    Roots Converged
 
 --------------------------------------------------------------
 
                    Orbital Energies (a.u.)
 --------------------------------------------------------------
 
 Alpha MOs
 -- Occupied --
-68.749 -20.556 -11.254 -11.198 -11.192 -11.192  -6.096  -4.203
 -4.203  -4.203  -1.350  -0.969  -0.921  -0.917  -0.900  -0.690
 -0.627  -0.617  -0.571  -0.558  -0.553  -0.537  -0.534  -0.532
 -0.525  -0.450  -0.428  -0.422  -0.415
 -- Virtual --
  0.052   0.070   0.073   0.076   0.105   0.115   0.120   0.125
  0.130   0.146   0.153   0.153   0.159   0.179   0.182   0.189
  0.190   0.194   0.198   0.220   0.259   0.264   0.271   0.273
  0.277   0.294   0.298   0.309   0.327   0.335   0.343   0.353
  0.369   0.371   0.374   0.381   0.402   0.416   0.430   0.476
  0.476   0.484   0.487   0.494   0.508   0.572   0.634   0.645
  0.655   0.677   0.678   0.701   0.706   0.721   0.728   0.731
  0.797   0.835   0.844   0.857   0.861   0.883   0.897   0.897
  0.908   0.918   0.926   0.952   0.956   0.980   0.991   1.093
  1.109   1.116   1.119   1.168   1.176   1.217   1.265   1.285
  1.297   1.357   1.365   1.387   1.414   1.486   1.496   1.503
  1.578   1.631   1.713   1.726   1.735   1.761   1.768   1.783
  1.802   1.823   1.826   1.842   1.852   1.883   1.892   1.895
  1.902   1.930   1.938   1.965   1.997   2.010   2.036   2.042
  2.047   2.082   2.108   2.113   2.162   2.221   2.293   2.334
  2.356   2.366   2.386   2.480   2.503   2.504   2.518   2.549
  2.568   2.574   2.735   2.780   2.791   2.804   2.805   2.830
  2.850   2.884   2.891   2.907   2.909   2.926   2.936   2.951
  2.956   2.971   2.976   2.976   2.996   3.107   3.249   3.259
  3.271   3.324   3.476   3.488   3.583   3.610   3.723   3.728
  3.789   4.129   4.140   4.145   4.157   4.179   4.189   4.196
  4.295   4.435   5.589   5.936   6.195   6.320  12.434  12.444
 12.450  24.976  25.119  25.119  25.141  51.618 144.075
 --------------------------------------------------------------
 
          Ground-State Mulliken Net Atomic Charges

     Atom                 Charge (a.u.)
  ----------------------------------------
      1 C                    -0.775390
      2 Si                    1.123485
      3 C                    -0.759303
      4 C                    -0.775391
      5 C                    -0.551030
      6 O                    -0.322175
      7 H                     0.182594
      8 H                     0.162427
      9 H                     0.163953
     10 H                     0.162123
     11 H                     0.166953
     12 H                     0.162123
     13 H                     0.163953
     14 H                     0.182594
     15 H                     0.162427
     16 H                     0.147644
     17 H                     0.147644
     18 H                     0.255366
  ----------------------------------------
  Sum of atomic charges =     0.000000

 -----------------------------------------------------------------
                    Cartesian Multipole Moments
 -----------------------------------------------------------------
    Charge (ESU x 10^10)
                 0.0000
    Dipole Moment (Debye)
         X       0.0740      Y      -0.0000      Z      -1.4961
       Tot       1.4979
    Quadrupole Moments (Debye-Ang)
        XX     -45.2957     XY      -0.0001     YY     -49.0482
        XZ      -4.4868     YZ       0.0000     ZZ     -47.7541
    Octopole Moments (Debye-Ang^2)
       XXX      29.9960    XXY      -0.0002    XYY       3.3630
[...]
 H          0.032 -0.034  0.091   -0.032  0.047  0.003   -0.006  0.013  0.019
 H         -0.035 -0.055  0.070   -0.001 -0.045 -0.092   -0.003 -0.014  0.001
 H         -0.191  0.316  0.142    0.318  0.261 -0.037   -0.435 -0.001  0.029
 H          0.191 -0.316  0.142    0.318  0.261  0.037   -0.435 -0.001 -0.029
 H          0.000  0.000 -0.050   -0.053  0.183 -0.000    0.419  0.663 -0.000
 TransDip  -0.000  0.000  0.303    0.147  0.154 -0.000    0.103  0.107 -0.000

 Mode:                25                     26                     27
 Frequency:      1251.40                1301.73                1303.57
 Force Cnst:      1.0100                 1.2667                 1.2665
 Red. Mass:       1.0946                 1.2688                 1.2650
 IR Active:          YES                    YES                    YES
 IR Intens:        2.511                 45.450                 40.062
 Raman Active:       YES                    YES                    YES
               X      Y      Z        X      Y      Z        X      Y      Z
 C         -0.004  0.005  0.001   -0.003  0.060 -0.090    0.001 -0.043  0.057
 Si        -0.000 -0.000 -0.011    0.000  0.000  0.014    0.005  0.012 -0.000
 C          0.000  0.000  0.005   -0.000 -0.000 -0.004   -0.084 -0.075  0.000
 C          0.004 -0.005  0.001    0.003 -0.060 -0.090    0.001 -0.043 -0.057
 C          0.000 -0.000 -0.065   -0.000 -0.000 -0.001    0.000 -0.005  0.000
 O         -0.000  0.000  0.049    0.000  0.000 -0.001   -0.000  0.003 -0.000
 H          0.015 -0.019  0.011    0.151 -0.134  0.356   -0.108  0.095 -0.233
 H         -0.009 -0.006 -0.005   -0.139 -0.148  0.349    0.101  0.111 -0.225
 H          0.004 -0.018  0.017    0.014 -0.341  0.199   -0.002  0.230 -0.139
 H          0.003 -0.009 -0.004   -0.001  0.009  0.003    0.346  0.184  0.154
 H         -0.000 -0.000 -0.019    0.000  0.000  0.015    0.176  0.389 -0.000
 H         -0.003  0.009 -0.004    0.002 -0.008  0.002    0.346  0.184 -0.154
 H         -0.004  0.018  0.017   -0.014  0.341  0.199   -0.002  0.229  0.138
 H         -0.015  0.019  0.011   -0.152  0.135  0.356   -0.108  0.095  0.232
 H          0.009  0.006 -0.005    0.140  0.148  0.349    0.101  0.111  0.224
 H          0.633  0.293  0.088   -0.028 -0.003 -0.001    0.004 -0.003  0.002
 H         -0.633 -0.293  0.088    0.028  0.003 -0.001    0.004 -0.003 -0.002
 H         -0.000 -0.000  0.029   -0.000 -0.000  0.001   -0.013 -0.019  0.000
 TransDip  -0.000 -0.000 -0.051    0.000  0.000  0.216    0.087  0.183 -0.000

 Mode:                28                     29                     30
 Frequency:      1313.83                1387.24                1460.64
 Force Cnst:      1.2602                 1.6178                 1.3225
 Red. Mass:       1.2391                 1.4269                 1.0521
 IR Active:          YES                    YES                    YES
 IR Intens:       12.748                  6.319                  0.000
 Raman Active:       YES                    YES                    YES
               X      Y      Z        X      Y      Z        X      Y      Z
 C         -0.004  0.044 -0.061    0.004  0.001 -0.005    0.030  0.023  0.016
 Si         0.007 -0.002 -0.000   -0.013  0.006 -0.000    0.000  0.000  0.000
 C         -0.074 -0.062  0.000   -0.002 -0.004 -0.000    0.000 -0.000 -0.027
 C         -0.004  0.044  0.061    0.004  0.001  0.005   -0.030 -0.023  0.016
 C         -0.012  0.007 -0.000    0.163 -0.071  0.000    0.000 -0.000  0.000
 O          0.001 -0.005  0.000   -0.018  0.064 -0.000   -0.000 -0.000 -0.000
 H          0.118 -0.110  0.260    0.001  0.005  0.036    0.138 -0.125  0.152
 H         -0.106 -0.112  0.254   -0.007 -0.013  0.025   -0.178 -0.300 -0.291
 H          0.016 -0.252  0.151   -0.019 -0.028  0.015   -0.363  0.122 -0.072
 H          0.320  0.162  0.132    0.016  0.020  0.016   -0.187  0.048  0.024
 H          0.155  0.349 -0.000    0.012  0.022  0.000   -0.000 -0.000  0.297
 H          0.320  0.162 -0.132    0.016  0.020 -0.016    0.186 -0.047  0.023
 H          0.017 -0.252 -0.151   -0.019 -0.028 -0.015    0.363 -0.121 -0.072
 H          0.118 -0.110 -0.260    0.001  0.005 -0.036   -0.138  0.125  0.153
 H         -0.106 -0.112 -0.254   -0.007 -0.013 -0.025    0.178  0.299 -0.291
 H          0.024 -0.009 -0.013   -0.510  0.107  0.172   -0.002 -0.001 -0.000
 H          0.024 -0.009  0.013   -0.510  0.107 -0.172    0.002  0.002 -0.001
 H          0.026  0.038 -0.000   -0.332 -0.491  0.000   -0.000 -0.000  0.003
 TransDip   0.111 -0.029 -0.000   -0.078 -0.019  0.000    0.000 -0.000 -0.001

 Mode:                31                     32                     33
 Frequency:      1465.17                1465.42                1472.77
 Force Cnst:      1.3300                 1.3308                 1.3402
 Red. Mass:       1.0516                 1.0518                 1.0487
 IR Active:          YES                    YES                    YES
 IR Intens:        0.005                  0.013                  5.662
 Raman Active:       YES                    YES                    YES
               X      Y      Z        X      Y      Z        X      Y      Z
 C         -0.015  0.017  0.013   -0.033  0.020  0.015   -0.025 -0.024 -0.019
 Si         0.001 -0.000 -0.000    0.000  0.000  0.000   -0.005 -0.006 -0.000
 C          0.033 -0.039  0.000    0.000 -0.000 -0.026    0.009 -0.008 -0.000
 C         -0.015  0.017 -0.013    0.033 -0.019  0.015   -0.025 -0.024  0.019
 C          0.002  0.002  0.000   -0.000  0.000 -0.001    0.007  0.013  0.000
 O         -0.000 -0.001  0.000    0.000 -0.000  0.001    0.001  0.005 -0.000
 H          0.156 -0.207 -0.156    0.195 -0.275 -0.297   -0.178  0.180 -0.120
 H         -0.115 -0.145  0.043   -0.117 -0.123  0.165    0.204  0.335  0.289
 H          0.157  0.119 -0.061    0.362  0.141 -0.066    0.331 -0.161  0.095
 H         -0.170  0.396  0.315   -0.192  0.046  0.024   -0.046  0.093  0.073
 H         -0.106 -0.270 -0.000   -0.000 -0.000  0.303   -0.027 -0.071  0.001
 H         -0.170  0.396 -0.315    0.192 -0.045  0.023   -0.045  0.092 -0.073
 H          0.157  0.120  0.061   -0.362 -0.141 -0.066    0.331 -0.161 -0.095
 H          0.157 -0.208  0.157   -0.194  0.274 -0.297   -0.178  0.180  0.120
 H         -0.116 -0.147 -0.043    0.117  0.123  0.165    0.204  0.334 -0.289
 H         -0.005  0.001 -0.001   -0.004  0.001 -0.001   -0.037 -0.108 -0.078
 H         -0.005  0.001  0.001    0.004 -0.001 -0.001   -0.037 -0.108  0.078
 H          0.000  0.000 -0.000    0.000  0.000 -0.002   -0.007 -0.009  0.000
 TransDip   0.001  0.002  0.000    0.000  0.000 -0.004    0.050  0.057  0.000

 Mode:                34                     35                     36
 Frequency:      1475.82                1483.83                1500.92
 Force Cnst:      1.3439                 1.3569                 1.4282
 Red. Mass:       1.0473                 1.0460                 1.0760
 IR Active:          YES                    YES                    YES
 IR Intens:        5.278                  8.425                  7.363
 Raman Active:       YES                    YES                    YES
               X      Y      Z        X      Y      Z        X      Y      Z
 C          0.002 -0.020 -0.013   -0.028  0.013  0.011   -0.004 -0.004 -0.004
 Si         0.000  0.000 -0.008   -0.008  0.005  0.000    0.001 -0.004  0.000
 C         -0.000  0.000 -0.048   -0.019  0.024  0.000    0.003 -0.004 -0.000
 C         -0.002  0.020 -0.013   -0.028  0.013 -0.011   -0.004 -0.004  0.004
 C         -0.000 -0.000  0.001    0.004 -0.006 -0.000   -0.035 -0.063  0.000
 O          0.000 -0.000  0.001   -0.001 -0.000  0.000    0.002 -0.024  0.000
 H         -0.169  0.204  0.065    0.158 -0.229 -0.282   -0.045  0.050 -0.009
 H          0.149  0.212  0.054   -0.090 -0.089  0.179    0.047  0.074  0.047
 H         -0.003 -0.131  0.071    0.351  0.122 -0.058    0.048 -0.044  0.026
 H         -0.384  0.085  0.044    0.107 -0.269 -0.213   -0.015  0.037  0.030
 H          0.000  0.000  0.589    0.076  0.187 -0.000   -0.008 -0.024  0.000
 H          0.385 -0.086  0.045    0.107 -0.269  0.213   -0.015  0.037 -0.030
 H          0.002  0.131  0.071    0.351  0.122  0.058    0.048 -0.044 -0.026
 H          0.169 -0.204  0.065    0.158 -0.229  0.282   -0.045  0.050  0.009
 H         -0.149 -0.212  0.055   -0.090 -0.089 -0.179    0.047  0.074 -0.046
 H          0.023  0.002 -0.001   -0.008  0.035  0.029    0.137  0.541  0.394
 H         -0.023 -0.002 -0.001   -0.008  0.035 -0.029    0.137  0.541 -0.394
 H          0.000  0.000  0.001   -0.003 -0.004 -0.000    0.071  0.102 -0.000
 TransDip  -0.000 -0.000  0.074    0.079 -0.049 -0.000   -0.068  0.054 -0.000

 Mode:                37                     38                     39
 Frequency:      3025.25                3063.03                3065.28
 Force Cnst:      5.6897                 5.7256                 5.7331
 Red. Mass:       1.0552                 1.0358                 1.0356
 IR Active:          YES                    YES                    YES
 IR Intens:       42.327                  7.715                  8.185
 Raman Active:       YES                    YES                    YES
               X      Y      Z        X      Y      Z        X      Y      Z
 C         -0.000 -0.000 -0.000    0.000 -0.001  0.001    0.004 -0.019  0.030
 Si         0.001 -0.000 -0.000    0.001  0.001  0.000    0.000 -0.000 -0.001
 C         -0.001 -0.001 -0.000   -0.038 -0.033  0.000   -0.000 -0.000 -0.000
 C         -0.000 -0.000  0.000    0.000 -0.001 -0.002   -0.004  0.019  0.030
 C         -0.010  0.065 -0.000    0.000 -0.002  0.000    0.000 -0.000 -0.004
 O          0.001  0.001  0.000   -0.000  0.000  0.000   -0.000  0.000 -0.000
 H          0.001  0.000  0.000    0.010  0.007  0.001    0.298  0.228 -0.001
 H          0.000 -0.000 -0.001   -0.016  0.011  0.000   -0.355  0.229 -0.001
 H         -0.000  0.002  0.002    0.001 -0.012 -0.016    0.012 -0.245 -0.339
 H         -0.001  0.008 -0.012   -0.032  0.331 -0.471   -0.000 -0.002  0.002
 H          0.006 -0.005  0.000    0.501 -0.282  0.000    0.001 -0.001  0.000
 H         -0.001  0.008  0.012   -0.032  0.331  0.471    0.000  0.004  0.005
 H         -0.000  0.002 -0.002    0.001 -0.013  0.018   -0.012  0.247 -0.341
 H          0.001  0.000 -0.000    0.011  0.008 -0.001   -0.300 -0.230 -0.001
 H          0.000 -0.000  0.001   -0.018  0.012 -0.000    0.358 -0.231 -0.001
 H          0.040 -0.394  0.584   -0.001  0.008 -0.012    0.003 -0.018  0.023
 H          0.040 -0.394 -0.584   -0.001  0.008  0.012   -0.003  0.018  0.024
 H          0.003  0.003  0.000   -0.000 -0.000 -0.000    0.000 -0.000 -0.000
 TransDip   0.045  0.203 -0.000   -0.061 -0.065 -0.000   -0.000  0.000  0.092

 Mode:                40                     41                     42
 Frequency:      3065.58                3076.11                3155.06
 Force Cnst:      5.7331                 6.1612                 6.4511
 Red. Mass:       1.0354                 1.1051                 1.0999
 IR Active:          YES                    YES                    YES
 IR Intens:        3.609                 35.105                  1.637
 Raman Active:       YES                    YES                    YES
               X      Y      Z        X      Y      Z        X      Y      Z
 C         -0.004  0.018 -0.030   -0.000  0.001 -0.001    0.013 -0.019 -0.014
 Si        -0.000 -0.001  0.000    0.000 -0.000 -0.001   -0.000  0.000 -0.000
 C         -0.002 -0.002  0.000    0.000 -0.000  0.002   -0.055  0.063 -0.000
 C         -0.004  0.018  0.030    0.000 -0.001 -0.001    0.013 -0.019  0.013
 C          0.000 -0.000  0.000   -0.000 -0.000 -0.094    0.000  0.000 -0.000
 O          0.000 -0.000 -0.000   -0.000  0.000  0.000    0.000 -0.000  0.000
 H         -0.299 -0.229  0.001   -0.015 -0.011  0.000    0.016  0.005 -0.004
 H          0.355 -0.229  0.002    0.019 -0.012  0.001   -0.165  0.106 -0.008
 H         -0.012  0.248  0.346    0.000  0.007  0.011   -0.002  0.118  0.175
 H         -0.001  0.016 -0.022   -0.002  0.007 -0.010    0.000 -0.209  0.307
 H          0.021 -0.011 -0.000   -0.000  0.000  0.002    0.660 -0.341  0.000
 H         -0.001  0.016  0.022    0.002 -0.007 -0.010    0.000 -0.207 -0.306
 H         -0.011  0.246 -0.343   -0.000 -0.007  0.011   -0.002  0.117 -0.173
 H         -0.296 -0.228 -0.000    0.015  0.012  0.000    0.015  0.005  0.004
 H          0.352 -0.227 -0.001   -0.019  0.012  0.001   -0.163  0.105  0.008
 H         -0.001  0.002 -0.002    0.057 -0.417  0.563    0.000 -0.001  0.002
 H         -0.001  0.002  0.002   -0.057  0.417  0.563    0.000 -0.001 -0.002
 H         -0.000  0.000  0.000    0.000 -0.000  0.003   -0.000  0.000 -0.000
 TransDip  -0.042  0.044 -0.000    0.000 -0.000 -0.190   -0.028  0.029 -0.000

 Mode:                43                     44                     45
 Frequency:      3155.90                3157.10                3157.20
 Force Cnst:      6.4575                 6.4599                 6.4582
 Red. Mass:       1.1004                 1.1000                 1.0997
 IR Active:          YES                    YES                    YES
 IR Intens:        0.002                 19.010                 27.637
 Raman Active:       YES                    YES                    YES
               X      Y      Z        X      Y      Z        X      Y      Z
 C         -0.028  0.037  0.026    0.022 -0.030 -0.021   -0.027  0.040  0.028
 Si        -0.000  0.000  0.000    0.000 -0.000 -0.001   -0.001  0.001 -0.000
 C         -0.000  0.000 -0.054    0.002 -0.003 -0.074   -0.024  0.028 -0.006
 C          0.027 -0.036  0.026   -0.017  0.023 -0.016   -0.030  0.044 -0.032
 C          0.000  0.000 -0.000   -0.000 -0.000 -0.002    0.000  0.000 -0.000
 O          0.000 -0.000 -0.000   -0.000  0.000  0.000    0.000 -0.000  0.000
 H         -0.010  0.006  0.006    0.008 -0.004 -0.005   -0.031 -0.011  0.007
 H          0.339 -0.219  0.016   -0.269  0.174 -0.013    0.348 -0.225  0.019
 H          0.003 -0.227 -0.339   -0.003  0.185  0.277    0.005 -0.243 -0.363
 H          0.015 -0.247  0.329    0.019 -0.334  0.443    0.001 -0.121  0.173
 H          0.002 -0.001 -0.013   -0.026  0.014 -0.017    0.294 -0.150 -0.001
 H         -0.015  0.246  0.327   -0.019  0.351  0.467   -0.002 -0.066 -0.099
 H         -0.003  0.225 -0.335    0.002 -0.142  0.213    0.005 -0.272  0.407
 H          0.010 -0.006  0.006   -0.002  0.006 -0.004   -0.032 -0.010 -0.008
 H         -0.336  0.217  0.016    0.207 -0.134 -0.010    0.392 -0.254 -0.021
 H          0.000 -0.001  0.001    0.002 -0.008  0.011    0.001 -0.004  0.004
 H         -0.000  0.001  0.001   -0.002  0.009  0.011    0.001 -0.002 -0.002
 H         -0.000  0.000  0.000    0.000 -0.000 -0.000   -0.000  0.000 -0.000
 TransDip  -0.000  0.001 -0.001    0.009 -0.012 -0.139   -0.100  0.135 -0.012

 Mode:                46                     47                     48
 Frequency:      3165.61                3166.69                3885.59
 Force Cnst:      6.4972                 6.4994                 9.4941
 Red. Mass:       1.1004                 1.1000                 1.0673
 IR Active:          YES                    YES                    YES
 IR Intens:        1.828                 11.493                 35.159
 Raman Active:       YES                    YES                    YES
               X      Y      Z        X      Y      Z        X      Y      Z
 C          0.055  0.030  0.016   -0.057 -0.028 -0.015    0.000 -0.000 -0.000
 Si        -0.000 -0.000  0.000   -0.001 -0.000 -0.000    0.000 -0.000 -0.000
 C          0.000 -0.000 -0.000    0.000 -0.000  0.000    0.000  0.000 -0.000
 C         -0.055 -0.030  0.017   -0.057 -0.027  0.015    0.000 -0.000  0.000
 C          0.000  0.000  0.000    0.000 -0.000 -0.000    0.000  0.001  0.000
 O         -0.000  0.000  0.000   -0.000  0.000  0.000   -0.055  0.030 -0.000
 H         -0.465 -0.371  0.020    0.467  0.374 -0.021   -0.000  0.000  0.000
 H         -0.217  0.157 -0.004    0.237 -0.170  0.005    0.000 -0.000  0.000
 H          0.018 -0.143 -0.215   -0.017  0.130  0.196   -0.000  0.000 -0.000
 H          0.000 -0.000  0.001    0.000  0.004 -0.004   -0.000 -0.000  0.000
 H         -0.000  0.000  0.000    0.001  0.000  0.000    0.000 -0.000  0.000
 H         -0.000  0.000  0.001    0.000  0.003  0.004   -0.000 -0.000 -0.000
 H         -0.018  0.144 -0.217   -0.017  0.129 -0.195   -0.000  0.000  0.000
 H          0.467  0.373  0.020    0.464  0.372  0.021   -0.000 -0.000 -0.000
 H          0.218 -0.158 -0.004    0.236 -0.169 -0.005    0.000 -0.000 -0.000
 H         -0.001  0.002 -0.002   -0.000  0.001 -0.002    0.003  0.003  0.000
 H          0.001 -0.002 -0.002   -0.000  0.001  0.002    0.003  0.003 -0.000
 H          0.000 -0.000  0.000    0.000  0.001 -0.000    0.866 -0.497  0.000
 TransDip  -0.000 -0.000  0.043   -0.098 -0.046  0.000    0.178 -0.067 -0.000

 STANDARD THERMODYNAMIC QUANTITIES AT   298.15 K  AND     1.00 ATM

   This Molecule has  0 Imaginary Frequencies
   Zero point vibrational energy:       96.834 kcal/mol

   Atom    1 Element C  Has Mass   12.00000
   Atom    2 Element Si Has Mass   27.97693
   Atom    3 Element C  Has Mass   12.00000
   Atom    4 Element C  Has Mass   12.00000
   Atom    5 Element C  Has Mass   12.00000
   Atom    6 Element O  Has Mass   15.99491
   Atom    7 Element H  Has Mass    1.00783
   Atom    8 Element H  Has Mass    1.00783
   Atom    9 Element H  Has Mass    1.00783
   Atom   10 Element H  Has Mass    1.00783
   Atom   11 Element H  Has Mass    1.00783
   Atom   12 Element H  Has Mass    1.00783
   Atom   13 Element H  Has Mass    1.00783
   Atom   14 Element H  Has Mass    1.00783
   Atom   15 Element H  Has Mass    1.00783
   Atom   16 Element H  Has Mass    1.00783
   Atom   17 Element H  Has Mass    1.00783
   Atom   18 Element H  Has Mass    1.00783
   Molecular Mass:   104.065800 amu
   Principal axes and moments of inertia in amu*Bohr^2:
                             1           2           3
    Eigenvalues --      588.29545   950.33007   950.36900
          X               0.99998    -0.00562     0.00000
          Y               0.00562     0.99998    -0.00072
          Z              -0.00000     0.00072     1.00000
   Rotational Symmetry Number is   1
   The Molecule is an Asymmetric Top
   Translational Enthalpy:        0.889 kcal/mol
   Rotational Enthalpy:           0.889 kcal/mol
   Vibrational Enthalpy:        101.651 kcal/mol
   gas constant (RT):             0.592 kcal/mol
   Translational Entropy:        39.837  cal/mol.K
   Rotational Entropy:           27.765  cal/mol.K
   Vibrational Entropy:          29.970  cal/mol.K

   Total Enthalpy:              104.021 kcal/mol
   Total Entropy:                97.571  cal/mol.K
Archival summary:
1\1\mm2.localdomain\FREQ\MP2\6-311+G**\i11412\xuedong\MonJun2202:10:202020MonJun2202:10:202020\0\\#,FREQ,MP2,6-311+G**,\\0,1\Si\C,1,1.87592\H,2,1.09424,1,110.361\H,2,1.09514,1,111.131,3,119.583,0\H,2,1.09515,1,111.407,3,-120.172,0\C,1,1.87592,2,110.668,3,61.0758,0\H,6,1.09424,1,110.361,2,-61.0755,0\H,6,1.09514,1,111.131,2,179.341,0\H,6,1.09515,1,111.407,2,59.0963,0\C,1,1.88141,2,110.516,3,-176.165,0\H,10,1.09516,1,111.512,2,58.2565,0\H,10,1.09516,1,111.512,2,178.896,0\H,10,1.09527,1,110.791,2,-61.4236,0\C,1,1.89815,2,108.534,3,-57.922,0\H,14,1.09999,1,110.224,2,-178.933,0\H,14,1.09999,1,110.224,2,-60.7359,0\O,14,1.43906,1,107.314,2,60.1658,0\H,17,0.960718,14,107.756,1,180,0\\HF=-522.34881\MP2=-523.274911\\@

 Total job time:  5295.14s(wall), 12170.52s(cpu) 
 Mon Jun 22 02:10:20 2020

        *************************************************************
        *                                                           *
        *  Thank you very much for using Q-Chem.  Have a nice day.  *
        *                                                           *
        *************************************************************


