
Running Job 1 of 2 14.freq.qcinp
qchem 14.freq.qcinp_12799.0 /scratch/xuedong/qchem12799/ 1
/home/qwang/software/qchem5.1/exe/qcprog.exe_s 14.freq.qcinp_12799.0 /scratch/xuedong/qchem12799/
Check license passed

                  Welcome to Q-Chem
     A Quantum Leap Into The Future Of Chemistry


 Q-Chem 5.1, Q-Chem, Inc., Pleasanton, CA (2018)

 Yihan Shao,  Zhengting Gan,  E. Epifanovsky,  A. T. B. Gilbert,  M. Wormit,  
 J. Kussmann,  A. W. Lange,  A. Behn,  Jia Deng,  Xintian Feng,  D. Ghosh,  
 M. Goldey,  P. R. Horn,  L. D. Jacobson,  I. Kaliman,  T. Kus,  A. Landau,  
 Jie Liu,  E. I. Proynov,  R. M. Richard,  R. P. Steele,  E. J. Sundstrom,  
 H. L. Woodcock III,  P. M. Zimmerman,  D. Zuev,  B. Albrecht,  E. Alguire,  
 S. A. Baeppler,  D. Barton,  Z. Benda,  Y. A. Bernard,  E. J. Berquist,  
 K. B. Bravaya,  H. Burton,  D. Casanova,  Chun-Min Chang,  Yunqing Chen,  
 A. Chien,  K. D. Closser,  M. P. Coons,  S. Coriani,  S. Dasgupta,  
 A. L. Dempwolff,  M. Diedenhofen,  Hainam Do,  R. G. Edgar,  Po-Tung Fang,  
 S. Faraji,  S. Fatehi,  Qingguo Feng,  K. D. Fenk,  J. Fosso-Tande,  
 Qinghui Ge,  A. Ghysels,  G. Gidofalvi,  J. Gomes,  J. Gonthier,  A. Gunina,  
 D. Hait,  M. W. D. Hanson-Heine,  P. H. P. Harbach,  A. W. Hauser,  
 J. E. Herr,  E. G. Hohenstein,  Z. C. Holden,  Kerwin Hui,  B. C. Huynh,  
 T.-C. Jagau,  Hyunjun Ji,  B. Kaduk,  K. Khistyaev,  Jaehoon Kim,  
 P. Klunzinger,  K. Koh,  D. Kosenkov,  L. Koulias,  T. Kowalczyk,  
 C. M. Krauter,  A. Kunitsa,  Ka Un Lao,  A. Laurent,  K. V. Lawler,  
 Joonho Lee,  D. Lefrancois,  S. Lehtola,  D. S. Levine,  Yi-Pei Li,  
 You-Sheng Lin,  Fenglai Liu,  E. Livshits,  A. Luenser,  P. Manohar,  
 E. Mansoor,  S. F. Manzer,  Shan-Ping Mao,  Yuezhi Mao,  N. Mardirossian,  
 A. V. Marenich,  T. Markovich,  L. A. Martinez-Martinez,  S. A. Maurer,  
 N. J. Mayhall,  S. C. McKenzie,  J.-M. Mewes,  A. F. Morrison,  
 J. W. Mullinax,  K. Nanda,  T. S. Nguyen-Beck,  R. Olivares-Amaya,  
 J. A. Parkhill,  T. M. Perrine,  F. Plasser,  P. Pokhilko,  S. Prager,  
 A. Prociuk,  E. Ramos,  D. R. Rehn,  F. Rob,  M. Schneider,  N. Sergueev,  
 S. M. Sharada,  S. Sharma,  D. W. Small,  T. Stauch,  T. Stein,  
 Yu-Chuan Su,  A. J. W. Thom,  A. Tkatchenko,  T. Tsuchimochi,  N. M. Tubman,  
 L. Vogt,  M. L. Vidal,  O. Vydrov,  M. A. Watson,  J. Wenzel,  
 M. de Wergifosse,  T. A. Wesolowski,  A. White,  J. Witte,  A. Yamada,  
 Jun Yang,  K. Yao,  S. Yeganeh,  S. R. Yost,  Zhi-Qiang You,  A. Zech,  
 Igor Ying Zhang,  Xing Zhang,  Yan Zhao,  Ying Zhu,  B. R. Brooks,  
 G. K. L. Chan,  C. J. Cramer,  M. S. Gordon,  W. J. Hehre,  A. Klamt,  
 M. W. Schmidt,  C. D. Sherrill,  D. G. Truhlar,  A. Aspuru-Guzik,  R. Baer,  
 A. T. Bell,  N. A. Besley,  Jeng-Da Chai,  R. A. DiStasio Jr.,  A. Dreuw,  
 B. D. Dunietz,  T. R. Furlani,  Chao-Ping Hsu,  Yousung Jung,  Jing Kong,  
 D. S. Lambrecht,  WanZhen Liang,  C. Ochsenfeld,  V. A. Rassolov,  
 L. V. Slipchenko,  J. E. Subotnik,  T. Van Voorhis,  J. M. Herbert,  
 A. I. Krylov,  P. M. W. Gill,  M. Head-Gordon

 Contributors to earlier versions of Q-Chem not listed above: 
 R. D. Adamson,  B. Austin,  J. Baker,  G. J. O. Beran,  K. Brandhorst,  
 S. T. Brown,  E. F. C. Byrd,  A. K. Chakraborty,  C.-L. Cheng,  
 Siu Hung Chien,  D. M. Chipman,  D. L. Crittenden,  H. Dachsel,  
 R. J. Doerksen,  A. D. Dutoi,  L. Fusti-Molnar,  W. A. Goddard III,  
 A. Golubeva-Zadorozhnaya,  S. R. Gwaltney,  G. Hawkins,  A. Heyden,  
 S. Hirata,  G. Kedziora,  F. J. Keil,  C. Kelley,  Jihan Kim,  R. A. King,  
 R. Z. Khaliullin,  P. P. Korambath,  W. Kurlancheek,  A. M. Lee,  M. S. Lee,  
 S. V. Levchenko,  Ching Yeh Lin,  D. Liotard,  R. C. Lochan,  I. Lotan,  
 P. E. Maslen,  N. Nair,  D. P. O'Neill,  D. Neuhauser,  E. Neuscamman,  
 C. M. Oana,  R. Olson,  B. Peters,  R. Peverati,  P. A. Pieniazek,  
 Y. M. Rhee,  J. Ritchie,  M. A. Rohrdanz,  E. Rosta,  N. J. Russ,  
 H. F. Schaefer III,  N. E. Schultz,  N. Shenvi,  A. C. Simmonett,  A. Sodt,  
 D. Stuck,  K. S. Thanthiriwatte,  V. Vanovschi,  Tao Wang,  A. Warshel,  
 C. F. Williams,  Q. Wu,  X. Xu,  W. Zhang

 Please cite Q-Chem as follows:
 Y. Shao et al., Mol. Phys. 113, 184-215 (2015)
 DOI: 10.1080/00268976.2014.952696

 Q-Chem 5.1.0 for Intel X86 EM64T Linux

 Parts of Q-Chem use Armadillo 8.300.2 (Tropical Shenanigans).
 http://arma.sourceforge.net/

 Q-Chem begins on Mon Jun 22 02:10:20 2020  

Host: 
0

     Scratch files written to /scratch/xuedong/qchem12799//
 May118 |scratch|qcdevops|jenkins|workspace|build_RNUM 6581   
Processing $rem in /home/qwang/software/qchem5.1/config/preferences.
 MEM_TOTAL  2000 
Core orbitals will be frozen

Checking the input file for inconsistencies... 	...done.

--------------------------------------------------------------
User input:
--------------------------------------------------------------
$molecule
0 1
C         1.5714537194   -1.2998473138    1.4591001370
Si        1.8259444089   -0.0504225502    0.0696556999
C         1.6893847664    1.7012916878    0.7546904107
C         3.5245165211   -0.3017570790   -0.7173828166
C         0.4888978285   -0.3103835967   -1.2618308196
C        -0.8963351907   -0.1257301369   -0.7069312660
C        -1.5035708201    1.1393370158   -0.6881253985
C        -1.5956419577   -1.2017999817   -0.1390128869
C        -2.8625995083   -1.0236049003    0.4190540209
C        -3.4537173156    0.2414838044    0.4298977419
C        -2.7703434871    1.3223052891   -0.1311845061
H         1.6497167918   -2.3282379251    1.0912678223
H         2.3247509970   -1.1708691818    2.2432546807
H         0.5854856591   -1.1832064626    1.9183236247
H         1.8371015513    2.4501997643   -0.0303742693
H         2.4448989828    1.8785758182    1.5271996884
H         0.7058287444    1.8744330339    1.2010741722
H         3.6942023471    0.4092074642   -1.5322709096
H         3.6262496939   -1.3105941724   -1.1299375832
H         4.3249794424   -0.1617377835    0.0163146132
H         0.5982947011   -1.3183427230   -1.6832638592
H         0.6656306519    0.3942269798   -2.0851482240
H        -0.9822969837    1.9868404281   -1.1312876347
H        -1.1467111767   -2.1941256381   -0.1506288578
H        -3.3881652017   -1.8746801772    0.8466879382
H        -4.4415108779    0.3816865966    0.8620184704
H        -3.2235474318    2.3112490358   -0.1351256752
$end

$rem
JOBTYPE  =  opt
METHOD  =  MP2
BASIS  =  6-311G+(d,p)
SCF_MAX_CYCLES  =  200
GEOM_OPT_MAX_CYCLES  =  300
GEOM_OPT_TOL_DISPLACEMENT = 120
GEOM_OPT_TOL_ENERGY = 10
GEOM_OPT_TOL_GRADIENT = 20
$end
--------------------------------------------------------------
 ----------------------------------------------------------------
             Standard Nuclear Orientation (Angstroms)
    I     Atom           X                Y                Z
 ----------------------------------------------------------------
    1      C      -1.6147788011    -1.5423503196    -1.1544022727
    2      Si     -1.8262561474    -0.0000501039    -0.0899911813
    3      C      -1.6149009893     1.5426028190    -1.1539342339
    4      C      -3.5380504824    -0.0001022101     0.7084485748
    5      C      -0.5084087856    -0.0001892130     1.2852935044
    6      C       0.8862912976    -0.0000707452     0.7234282214
    7      C       1.5444230477     1.2031900161     0.4259222370
    8      C       1.5445912730    -1.2032438719     0.4259334816
    9      C       2.8208711045    -1.2056143088    -0.1392901631
   10      C       3.4628543539     0.0000998441    -0.4292870046
   11      C       2.8207053314     1.2057272679    -0.1392950939
   12      H      -1.7367598293    -2.4559137859    -0.5631870906
   13      H      -2.3577757923    -1.5670385890    -1.9583528034
   14      H      -0.6223083629    -1.5713187262    -1.6135183544
   15      H      -1.7365691246     2.4559758775    -0.5623629127
   16      H      -2.3582201524     1.5676518756    -1.9575828790
   17      H      -0.6226221305     1.5716239114    -1.6134549400
   18      H      -3.6833766672     0.8840012118     1.3373745679
   19      H      -3.6829421700    -0.8835411744     1.3384052004
   20      H      -4.3280114450    -0.0007338372    -0.0495880263
   21      H      -0.6609723982    -0.8804554242     1.9235809197
   22      H      -0.6610814261     0.8799252484     1.9237695834
   23      H       1.0554444289     2.1487311111     0.6566453655
   24      H       1.0557320756    -2.1488496999     0.6566503824
   25      H       3.3139052469    -2.1512508663    -0.3540179624
   26      H       4.4579507987     0.0001689268    -0.8673558684
   27      H       3.3136089144     2.1514297249    -0.3540321494
 ----------------------------------------------------------------
 Molecular Point Group                 C1    NOp =  1
 Largest Abelian Subgroup              C1    NOp =  1
 Nuclear Repulsion Energy =   683.5455491599 hartrees
 There are       45 alpha and       45 beta electrons
 Requested basis set is 6-311+G(d,p)
 There are 137 shells and 346 basis functions

 Total QAlloc Memory Limit   2000 MB
 Mega-Array Size       188 MB
 MEM_STATIC part       192 MB
 A cutoff of  1.0D-11 yielded   7751 shell pairs
 There are     51226 function pairs (     54482 Cartesian)
 
 -------------------------------------------------------
 OpenMP Integral Computing Module                       
 Release: version 1.0, May 2013, Q-Chem Inc. Pittsburgh 
 -------------------------------------------------------
 Integral Job Info:
 Integral job number is                      11
 Integral operator is                         1
 short-range coefficients                     0
 long-range coefficients              100000000
 Omega coefficients                           0
 if combine SR and LR in K                    0
 Integral screening is                        0
 Integral computing path is                   2
 max size of driver memory is            800000
 size of driver memory is                593474
 size of scratch memory is              4204008
 max col of scratch BK array               1296
 max len of scratch array in speh3          155
 max len of scratch index in speh4           18
 max int batch size is                      520
 min int batch size is                       52
 fixed nKL is                                52
 max L of basis functions is                  2
 order of int derivative is                   0
 number of shells is                        137
 number of basis is                         357
 number of cartesian basis is               357
 number of contracted shell pairs          7751
 number of primitive shell pairs          17359
 maxK2 (contraction) of shell pair           36
 max number of K2 of shell pair               1
 max number of CS2 of shell pair           1170
 max number of PS2 of shell pair           2160
 mem total for path MDJ                  572748
 -------------------------------------------------------
 Smallest overlap matrix eigenvalue = 2.09E-06

 Q-Chem warning in module stvman/mkSTV.C, line 295:

 Overlap eigenvalue is smaller than square root of threshold


 Scale SEOQF with 1.000000e-01/1.000000e-01/1.000000e-01

 Standard Electronic Orientation quadrupole field applied
 Nucleus-field energy     =     0.0000000176 hartrees
 Guess from superposition of atomic densities
 Warning:  Energy on first SCF cycle will be non-variational
 SAD guess density has 90.000000 electrons

 -----------------------------------------------------------------------
  General SCF calculation program by
  Eric Jon Sundstrom, Paul Horn, Yuezhi Mao, Dmitri Zuev, Alec White,
  David Stuck, Shaama M.S., Shane Yost, Joonho Lee, David Small,
  Daniel Levine, Susi Lehtola, Hugh Burton, Evgeny Epifanovsky
 -----------------------------------------------------------------------
 Hartree-Fock
 using 4 threads for integral computing
 -------------------------------------------------------
 OpenMP Integral computing Module                
 Release: version 1.0, May 2013, Q-Chem Inc. Pittsburgh 
 -------------------------------------------------------
 A restricted SCF calculation will be
 performed using DIIS
 SCF converges when DIIS error is below 1.0e-08
 ---------------------------------------
  Cycle       Energy         DIIS error
 ---------------------------------------
    1    -681.1592530005      3.50e-02  
    2    -676.9430297439      2.40e-03  
    3    -677.0612616605      6.79e-04  
    4    -677.0712345359      2.60e-04  
    5    -677.0725207877      3.42e-05  
    6    -677.0725552500      1.37e-05  
    7    -677.0725596674      4.18e-06  
    8    -677.0725601260      1.45e-06  
    9    -677.0725601875      3.91e-07  
   10    -677.0725601942      1.66e-07  
   11    -677.0725601964      8.56e-08  
   12    -677.0725601970      2.97e-08  
   13    -677.0725601971      9.28e-09  Convergence criterion met
 ---------------------------------------
 SCF time:   CPU 189.91s  wall 48.00s 
 SCF   energy in the final basis set =     -677.0725601971
 Total energy in the final basis set =     -677.0725601971
 
 Components of the MP2 correlation energy:
        aaaa  correlation energy =        -0.1918547278 au
        abab  correlation energy =        -1.1678298937 au
        bbbb  correlation energy =        -0.1918547278 au
        non-Brillouin singles    =        -0.0000000000 au

 Total  MP2   correlation energy =                    -1.55153935 au
        MP2         total energy =                  -678.62409955 au
  Entering Z-vector solver.
   1         0           1      0.000159    0.000159
   2         0           1      0.000048    0.000048
   3         0           1      0.000016    0.000016
   4         0           1      0.000009    0.000009
   5         0           1      0.000004    0.000004
   6         0           1      0.000002    0.000002
   7         1           0      0.000000    0.000000    Roots Converged
 
 --------------------------------------------------------------
 
                    Orbital Energies (a.u.)
 --------------------------------------------------------------
 
 Alpha MOs
 -- Occupied --
-68.755 -11.246 -11.236 -11.236 -11.230 -11.230 -11.230 -11.211
-11.199 -11.195 -11.195  -6.101  -4.208  -4.208  -4.208  -1.151
 -1.044  -1.010  -0.966  -0.922  -0.920  -0.918  -0.824  -0.794
 -0.691  -0.633  -0.633  -0.628  -0.583  -0.575  -0.568  -0.563
 -0.555  -0.542  -0.537  -0.529  -0.527  -0.506  -0.487  -0.484
 -0.433  -0.426  -0.425  -0.334  -0.312
 -- Virtual --
  0.052   0.064   0.065   0.071   0.086   0.088   0.100   0.104
  0.108   0.116   0.118   0.120   0.124   0.132   0.140   0.143
  0.146   0.150   0.155   0.158   0.168   0.176   0.186   0.196
  0.196   0.201   0.202   0.204   0.210   0.212   0.218   0.230
  0.230   0.233   0.244   0.249   0.259   0.264   0.267   0.275
  0.278   0.279   0.286   0.288   0.299   0.303   0.310   0.310
  0.320   0.323   0.324   0.330   0.334   0.345   0.358   0.363
  0.369   0.371   0.378   0.383   0.386   0.400   0.404   0.425
  0.430   0.436   0.443   0.472   0.479   0.487   0.492   0.495
  0.506   0.512   0.533   0.535   0.556   0.631   0.635   0.655
  0.676   0.678   0.684   0.694   0.708   0.708   0.730   0.730
  0.738   0.752   0.753   0.760   0.767   0.797   0.807   0.813
  0.828   0.830   0.846   0.863   0.864   0.874   0.886   0.904
  0.912   0.915   0.922   0.924   0.930   0.934   0.938   0.953
  0.958   0.963   0.966   0.979   0.985   0.988   1.007   1.007
  1.020   1.035   1.053   1.070   1.078   1.096   1.104   1.109
  1.113   1.137   1.163   1.182   1.192   1.201   1.214   1.228
  1.262   1.266   1.291   1.304   1.305   1.336   1.338   1.380
  1.380   1.400   1.418   1.485   1.494   1.521   1.537   1.629
  1.660   1.719   1.729   1.737   1.743   1.761   1.764   1.787
  1.792   1.794   1.803   1.839   1.844   1.856   1.860   1.861
  1.875   1.877   1.885   1.893   1.896   1.912   1.920   1.927
  1.965   1.978   1.989   2.000   2.002   2.007   2.019   2.037
  2.057   2.063   2.079   2.102   2.105   2.107   2.120   2.125
  2.152   2.206   2.226   2.237   2.248   2.256   2.259   2.265
  2.292   2.336   2.338   2.371   2.379   2.381   2.397   2.470
  2.495   2.502   2.516   2.529   2.539   2.551   2.575   2.588
  2.654   2.669   2.720   2.745   2.761   2.769   2.788   2.799
  2.812   2.832   2.839   2.874   2.877   2.905   2.918   2.932
  2.934   2.954   2.967   2.970   2.974   2.985   2.985   2.987
  3.009   3.023   3.033   3.050   3.061   3.077   3.083   3.103
  3.141   3.148   3.217   3.220   3.252   3.277   3.306   3.308
  3.333   3.337   3.353   3.360   3.493   3.512   3.618   3.646
  3.715   3.725   3.737   3.793   3.818   3.924   3.963   4.016
  4.117   4.143   4.150   4.155   4.177   4.189   4.204   4.210
  4.400   4.448   4.563   4.575   4.736   5.280   6.374  12.436
 12.462  12.486  24.762  25.068  25.112  25.116  25.132  25.132
 25.167  25.239  25.256  25.352 144.147
 --------------------------------------------------------------
 
          Ground-State Mulliken Net Atomic Charges

     Atom                 Charge (a.u.)
  ----------------------------------------
      1 C                    -0.888830
      2 Si                    1.287795
      3 C                    -0.888832
      4 C                    -0.808830
      5 C                    -1.064399
      6 C                     1.292728
      7 C                    -0.493940
      8 C                    -0.493930
      9 C                    -0.161776
     10 C                    -0.231848
     11 C                    -0.161747
     12 H                     0.177047
     13 H                     0.172706
     14 H                     0.194030
     15 H                     0.177049
     16 H                     0.172702
     17 H                     0.194019
     18 H                     0.169718
     19 H                     0.169720
     20 H                     0.168756
     21 H                     0.194031
     22 H                     0.194047
     23 H                     0.119840
     24 H                     0.119836
     25 H                     0.130211
     26 H                     0.129687
     27 H                     0.130211
  ----------------------------------------
  Sum of atomic charges =     0.000000

 -----------------------------------------------------------------
                    Cartesian Multipole Moments
 -----------------------------------------------------------------
    Charge (ESU x 10^10)
                 0.0000
    Dipole Moment (Debye)
         X      -0.5413      Y      -0.0001      Z      -0.0016
       Tot       0.5413
    Quadrupole Moments (Debye-Ang)
        XX     -77.0025     XY       0.0002     YY     -74.7721
        XZ      -2.3884     YZ      -0.0002     ZZ     -80.6612
    Octopole Moments (Debye-Ang^2)
       XXX      14.6167    XXY      -0.0008    XYY       6.6989
       YYY      -0.0015    XXZ     -18.3285    XYZ      -0.0011
       YYZ       6.6087    XZZ      -9.6151    YZZ       0.0002
       ZZZ      -0.7534
    Hexadecapole Moments (Debye-Ang^3)
      XXXX   -2463.7450   XXXY      -0.0004   XXYY    -498.9947
      XYYY       0.0017   YYYY    -620.1964   XXXZ     -26.3672
      XXYZ       0.0009   XYYZ     -16.1926   YYYZ       0.0009
      XXZZ    -497.8233   XYZZ       0.0019   YYZZ    -183.5474
      XZZZ       0.3963   YZZZ      -0.0042   ZZZZ    -426.6131
 -----------------------------------------------------------------
 DrvMan is completing analytic gradient of the MP2 energy
 MP2 relaxed dipole moment
            1
    1  -0.2129821
    2  -0.0000474
    3  -0.0006268
	Magnitude:	 0.213 au	 0.541 Debye
 MP2 energy read as -678.624100
 Full Analytical Gradient of MP2 Energy (in au.)
             1             2             3             4             5
    1   -0.00007097    0.00183590   -0.00006613   -0.00223966    0.00134723
    2   -0.00203368   -0.00000583    0.00203838    0.00000094   -0.00000293
    3   -0.00155065    0.00030262   -0.00154332    0.00096960   -0.00022129
             6             7             8             9            10
    1    0.00218659    0.00188136    0.00188546   -0.00181828   -0.00338366
    2   -0.00000293   -0.00256406    0.00256786    0.00355790   -0.00000092
    3   -0.00042838   -0.00122665   -0.00122685    0.00083545    0.00188579
            11            12            13            14            15
    1   -0.00181545    0.00008699    0.00036571   -0.00062004    0.00008556
    2   -0.00355562    0.00018995   -0.00029606   -0.00022564   -0.00018964
    3    0.00083462   -0.00045312    0.00022965    0.00026827   -0.00045445
            16            17            18            19            20
    1    0.00036422   -0.00062153   -0.00019122   -0.00019211    0.00009438
    2    0.00029529    0.00022571   -0.00047197    0.00047367   -0.00000088
    3    0.00022922    0.00026635   -0.00011335   -0.00011153    0.00046292
            21            22            23            24            25
    1    0.00011851    0.00011517    0.00000562    0.00000508    0.00014093
    2    0.00032594   -0.00032515    0.00027939   -0.00027980   -0.00029264
    3    0.00058672    0.00058633    0.00011163    0.00011127   -0.00010488
            26            27
    1    0.00035962    0.00014072
    2    0.00000013    0.00029259
    3   -0.00014086   -0.00010509
 Gradient time:  CPU 0.23 s  wall 0.13 s
 Geometry Optimization Parameters
   NAtoms,    NIC,     NZ,  NCons,   NDum,   NFix, NCnnct, MaxDiis
       27     195       0       0       0       0       0       0


** GEOMETRY OPTIMIZATION IN DELOCALIZED INTERNAL COORDINATES **
   Searching for a Minimum

   Optimization Cycle:   1

                       Coordinates (Angstroms)
     ATOM                X               Y               Z
      1  C        -1.6147788011   -1.5423503196   -1.1544022727
      2  Si       -1.8262561474   -0.0000501039   -0.0899911813
      3  C        -1.6149009893    1.5426028190   -1.1539342339
      4  C        -3.5380504824   -0.0001022101    0.7084485748
      5  C        -0.5084087856   -0.0001892130    1.2852935044
      6  C         0.8862912976   -0.0000707452    0.7234282214
      7  C         1.5444230477    1.2031900161    0.4259222370
      8  C         1.5445912730   -1.2032438719    0.4259334816
      9  C         2.8208711045   -1.2056143088   -0.1392901631
     10  C         3.4628543539    0.0000998441   -0.4292870046
     11  C         2.8207053314    1.2057272679   -0.1392950939
     12  H        -1.7367598293   -2.4559137859   -0.5631870906
     13  H        -2.3577757923   -1.5670385890   -1.9583528034
     14  H        -0.6223083629   -1.5713187262   -1.6135183544
     15  H        -1.7365691246    2.4559758775   -0.5623629127
     16  H        -2.3582201524    1.5676518756   -1.9575828790
     17  H        -0.6226221305    1.5716239114   -1.6134549400
     18  H        -3.6833766672    0.8840012118    1.3373745679
     19  H        -3.6829421700   -0.8835411744    1.3384052004
     20  H        -4.3280114450   -0.0007338372   -0.0495880263
     21  H        -0.6609723982   -0.8804554242    1.9235809197
     22  H        -0.6610814261    0.8799252484    1.9237695834
     23  H         1.0554444289    2.1487311111    0.6566453655
     24  H         1.0557320756   -2.1488496999    0.6566503824
     25  H         3.3139052469   -2.1512508663   -0.3540179624
     26  H         4.4579507987    0.0001689268   -0.8673558684
     27  H         3.3136089144    2.1514297249   -0.3540321494
   Point Group: c1    Number of degrees of freedom:    75


   Energy is   -678.624099546


 Attempting to Generate Delocalized Internal Coordinates

 75 Hessian modes will be used to form the next step
  Hessian Eigenvalues:
     0.002000    0.002548    0.002944    0.002946    0.008700    0.016589
     0.022080    0.022415    0.022502    0.022739    0.022882    0.022903
     0.022919    0.022925    0.041613    0.046415    0.047981    0.048404
     0.053927    0.054102    0.054242    0.054247    0.054463    0.054730
     0.054731    0.092616    0.127804    0.143570    0.144354    0.159973
     0.159978    0.159991    0.160000    0.160000    0.160000    0.160000
     0.160000    0.160000    0.160000    0.160000    0.160000    0.160000
     0.160000    0.193391    0.202040    0.203728    0.203734    0.219230
     0.219992    0.219998    0.234599    0.249679    0.320002    0.339064
     0.339067    0.342418    0.342419    0.342423    0.342429    0.342601
     0.342783    0.342784    0.343654    0.343657    0.349038    0.349039
     0.350622    0.350622    0.351319    0.416656    0.416897    0.453287
     0.457070    0.462394    0.463167

 Minimum Search - Taking Simple RFO Step
 Searching for Lamda that Minimizes Along All modes
 Value Taken    Lamda =  -0.00035110
 Step Taken.  Stepsize is  0.050869

                             Maximum     Tolerance    Cnvgd?
         Gradient           0.004789      0.000020      NO
         Displacement       0.019262      0.000120      NO
         Energy change     *********      0.000000      NO


 New Cartesian Coordinates Obtained by Inverse Iteration

 Displacement from previous Coordinates is:  0.192593
 ----------------------------------------------------------------
             Standard Nuclear Orientation (Angstroms)
    I     Atom           X                Y                Z
 ----------------------------------------------------------------
    1      C      -1.5978351058    -1.5346215282    -1.1426064106
    2      Si     -1.8244443738     0.0000743136    -0.0829694541
    3      C      -1.5985983659     1.5353077248    -1.1419992427
    4      C      -3.5366152512    -0.0004230732     0.6971514767
    5      C      -0.5173187659     0.0001099905     1.2954128238
    6      C       0.8777692535     0.0000306677     0.7319295477
    7      C       1.5357476092     1.2061505411     0.4305624872
    8      C       1.5356680116    -1.2062133271     0.4308625704
    9      C       2.8096953628    -1.2094959790    -0.1493063114
   10      C       3.4493904631    -0.0002059534    -0.4493575886
   11      C       2.8097762020     1.2091976211    -0.1495961165
   12      H      -1.7203735805    -2.4488948663    -0.5514235837
   13      H      -2.3357679594    -1.5600008549    -1.9520435384
   14      H      -0.6008295133    -1.5567897255    -1.5946761696
   15      H      -1.7212870325     2.4492752437    -0.5503760677
   16      H      -2.3367908508     1.5607893745    -1.9512006897
   17      H      -0.6017439201     1.5580274388    -1.5943699847
   18      H      -3.6862440074     0.8848301768     1.3245783075
   19      H      -3.6855887397    -0.8854598965     1.3250380343
   20      H      -4.3187617580    -0.0009098359    -0.0698034020
   21      H      -0.6727020562    -0.8823782183     1.9297701090
   22      H      -0.6726900659     0.8826494720     1.9297042203
   23      H       1.0469376336     2.1508642813     0.6631412495
   24      H       1.0467876136    -2.1508349479     0.6636680567
   25      H       3.3000798061    -2.1548765254    -0.3685906694
   26      H       4.4388587319    -0.0002898755    -0.8985911980
   27      H       3.3002238272     2.1544927201    -0.3691093539
 ----------------------------------------------------------------
 Molecular Point Group                 C1    NOp =  1
 Largest Abelian Subgroup              C1    NOp =  1
 Nuclear Repulsion Energy =   684.5232534277 hartrees
 There are       45 alpha and       45 beta electrons
 Applying Cartesian multipole field
    Component          Value
    ---------          -----
     (2,0,0)        1.00000E-11
     (0,2,0)        2.00000E-11
     (0,0,2)       -3.00000E-11
 Nucleus-field energy     =     0.0000000174 hartrees
 Requested basis set is 6-311+G(d,p)
 There are 137 shells and 346 basis functions
 A cutoff of  1.0D-11 yielded   7757 shell pairs
 There are     51296 function pairs (     54558 Cartesian)
 Smallest overlap matrix eigenvalue = 2.14E-06

 Q-Chem warning in module stvman/mkSTV.C, line 295:

 Overlap eigenvalue is smaller than square root of threshold

 Guess MOs from SCF MO coefficient file
 Reading MOs from coefficient file
 Reading MOs from coefficient file

 -----------------------------------------------------------------------
  General SCF calculation program by
  Eric Jon Sundstrom, Paul Horn, Yuezhi Mao, Dmitri Zuev, Alec White,
  David Stuck, Shaama M.S., Shane Yost, Joonho Lee, David Small,
  Daniel Levine, Susi Lehtola, Hugh Burton, Evgeny Epifanovsky
 -----------------------------------------------------------------------
 Hartree-Fock
 using 4 threads for integral computing
 -------------------------------------------------------
 OpenMP Integral computing Module                
 Release: version 1.0, May 2013, Q-Chem Inc. Pittsburgh 
 -------------------------------------------------------
 A restricted SCF calculation will be
 performed using DIIS
 SCF converges when DIIS error is below 1.0e-08
 ---------------------------------------
  Cycle       Energy         DIIS error
 ---------------------------------------
    1    -677.0624863136      2.64e-04  
    2    -677.0715495773      3.72e-05  
    3    -677.0715847118      1.63e-05  
    4    -677.0715903855      5.53e-06  
    5    -677.0715916284      1.51e-06  
    6    -677.0715917097      6.80e-07  
    7    -677.0715917247      2.31e-07  
    8    -677.0715917264      6.03e-08  
    9    -677.0715917266      1.70e-08  
   10    -677.0715917266      4.31e-09  Convergence criterion met
 ---------------------------------------
 SCF time:   CPU 154.42s  wall 39.00s 
 SCF   energy in the final basis set =     -677.0715917266
 Total energy in the final basis set =     -677.0715917266
 
 Components of the MP2 correlation energy:
        aaaa  correlation energy =        -0.1920385016 au
        abab  correlation energy =        -1.1685972286 au
        bbbb  correlation energy =        -0.1920385016 au
        non-Brillouin singles    =        -0.0000000000 au

 Total  MP2   correlation energy =                    -1.55267423 au
        MP2         total energy =                  -678.62426596 au
  Entering Z-vector solver.
   1         0           1      0.000160    0.000160
   2         0           1      0.000048    0.000048
   3         0           1      0.000016    0.000016
   4         0           1      0.000009    0.000009
   5         0           1      0.000004    0.000004
   6         0           1      0.000002    0.000002
   7         1           0      0.000000    0.000000    Roots Converged
 
 --------------------------------------------------------------
 
                    Orbital Energies (a.u.)
 --------------------------------------------------------------
 
 Alpha MOs
 -- Occupied --
-68.753 -11.247 -11.237 -11.237 -11.231 -11.231 -11.231 -11.210
-11.199 -11.195 -11.195  -6.100  -4.207  -4.206  -4.206  -1.149
 -1.043  -1.009  -0.967  -0.922  -0.920  -0.918  -0.823  -0.794
 -0.690  -0.634  -0.632  -0.628  -0.582  -0.575  -0.569  -0.564
 -0.555  -0.542  -0.537  -0.529  -0.527  -0.505  -0.486  -0.484
 -0.433  -0.427  -0.425  -0.333  -0.312
 -- Virtual --
  0.051   0.064   0.065   0.071   0.086   0.088   0.100   0.104
  0.108   0.115   0.118   0.119   0.123   0.132   0.140   0.144
  0.146   0.150   0.155   0.158   0.168   0.176   0.187   0.196
  0.196   0.201   0.202   0.205   0.209   0.212   0.219   0.230
  0.230   0.233   0.244   0.248   0.259   0.264   0.270   0.276
  0.278   0.280   0.287   0.289   0.299   0.303   0.310   0.311
  0.319   0.323   0.324   0.331   0.334   0.344   0.358   0.363
  0.368   0.370   0.378   0.382   0.388   0.400   0.404   0.425
  0.430   0.436   0.443   0.472   0.480   0.486   0.491   0.496
  0.508   0.511   0.532   0.535   0.554   0.631   0.632   0.653
  0.676   0.679   0.684   0.692   0.705   0.710   0.730   0.731
  0.738   0.752   0.753   0.759   0.768   0.797   0.808   0.813
  0.829   0.830   0.846   0.864   0.865   0.873   0.885   0.905
  0.913   0.914   0.921   0.925   0.931   0.933   0.938   0.953
  0.958   0.962   0.965   0.979   0.985   0.989   1.006   1.007
  1.019   1.035   1.054   1.071   1.077   1.094   1.108   1.109
  1.113   1.141   1.162   1.184   1.196   1.200   1.214   1.227
  1.265   1.266   1.290   1.304   1.305   1.335   1.340   1.379
  1.383   1.399   1.421   1.488   1.496   1.521   1.539   1.627
  1.663   1.717   1.727   1.736   1.742   1.762   1.762   1.787
  1.790   1.793   1.802   1.837   1.842   1.856   1.860   1.861
  1.876   1.879   1.886   1.894   1.895   1.910   1.918   1.925
  1.964   1.978   1.987   2.000   2.002   2.009   2.020   2.037
  2.057   2.064   2.079   2.103   2.108   2.110   2.124   2.126
  2.154   2.204   2.224   2.233   2.246   2.255   2.257   2.264
  2.290   2.333   2.338   2.368   2.377   2.379   2.395   2.468
  2.495   2.501   2.515   2.527   2.540   2.552   2.576   2.588
  2.648   2.667   2.716   2.742   2.762   2.770   2.787   2.799
  2.813   2.832   2.839   2.874   2.875   2.903   2.916   2.931
  2.933   2.955   2.963   2.970   2.974   2.986   2.986   2.989
  3.010   3.023   3.032   3.053   3.061   3.075   3.083   3.102
  3.142   3.151   3.211   3.220   3.253   3.274   3.303   3.309
  3.336   3.337   3.355   3.361   3.495   3.512   3.610   3.644
  3.719   3.731   3.737   3.788   3.811   3.919   3.957   4.005
  4.112   4.142   4.148   4.155   4.177   4.189   4.203   4.212
  4.400   4.447   4.563   4.575   4.735   5.273   6.381  12.441
 12.467  12.493  24.765  25.066  25.107  25.111  25.130  25.130
 25.165  25.228  25.243  25.337 144.155
 --------------------------------------------------------------
 
          Ground-State Mulliken Net Atomic Charges

     Atom                 Charge (a.u.)
  ----------------------------------------
      1 C                    -0.890990
      2 Si                    1.293825
      3 C                    -0.890952
      4 C                    -0.807612
      5 C                    -1.059380
      6 C                     1.258716
      7 C                    -0.479129
      8 C                    -0.478459
      9 C                    -0.170367
     10 C                    -0.227499
     11 C                    -0.170168
     12 H                     0.177218
     13 H                     0.172908
     14 H                     0.195297
     15 H                     0.177210
     16 H                     0.172905
     17 H                     0.195272
     18 H                     0.170053
     19 H                     0.170052
     20 H                     0.169138
     21 H                     0.194673
     22 H                     0.194678
     23 H                     0.120384
     24 H                     0.120372
     25 H                     0.130795
     26 H                     0.130264
     27 H                     0.130795
  ----------------------------------------
  Sum of atomic charges =     0.000000

 -----------------------------------------------------------------
                    Cartesian Multipole Moments
 -----------------------------------------------------------------
    Charge (ESU x 10^10)
                 0.0000
    Dipole Moment (Debye)
         X      -0.5734      Y      -0.0000      Z      -0.0085
       Tot       0.5735
    Quadrupole Moments (Debye-Ang)
        XX     -76.9956     XY      -0.0002     YY     -74.7688
        XZ      -2.5054     YZ      -0.0006     ZZ     -80.6857
    Octopole Moments (Debye-Ang^2)
       XXX      14.3266    XXY      -0.0006    XYY       6.7595
       YYY      -0.0056    XXZ     -18.6745    XYZ      -0.0033
       YYZ       6.6242    XZZ      -9.5172    YZZ       0.0007
       ZZZ      -1.0720
    Hexadecapole Moments (Debye-Ang^3)
      XXXX   -2450.4552   XXXY       0.0352   XXYY    -495.9996
      XYYY       0.0553   YYYY    -619.1834   XXXZ     -24.0113
      XXYZ       0.0106   XYYZ     -15.2955   YYYZ       0.0146
      XXZZ    -494.0676   XYZZ       0.0199   YYZZ    -183.2918
      XZZZ       4.1767   YZZZ       0.0102   ZZZZ    -426.4442
 -----------------------------------------------------------------
 DrvMan is completing analytic gradient of the MP2 energy
 MP2 relaxed dipole moment
            1
    1  -0.2256123
    2  -0.0000170
    3  -0.0033607
	Magnitude:	 0.226 au	 0.574 Debye
 MP2 energy read as -678.624266
 Full Analytical Gradient of MP2 Energy (in au.)
             1             2             3             4             5
    1   -0.00013885    0.00045120   -0.00013576   -0.00017760   -0.00013268
    2   -0.00003385   -0.00000049    0.00003448   -0.00000047    0.00000175
    3   -0.00008091    0.00025438   -0.00007860    0.00002575   -0.00064029
             6             7             8             9            10
    1   -0.00009647   -0.00014361   -0.00016424    0.00014390    0.00031245
    2    0.00000762    0.00022537   -0.00022623   -0.00020855   -0.00000350
    3    0.00029582   -0.00003849   -0.00003093    0.00004804   -0.00019642
            11            12            13            14            15
    1    0.00012893   -0.00002090    0.00000811    0.00011266   -0.00002083
    2    0.00020272    0.00007866    0.00008596   -0.00003610   -0.00007874
    3    0.00005483    0.00012364    0.00004200   -0.00000291    0.00012292
            16            17            18            19            20
    1    0.00000580    0.00011106    0.00004112    0.00003984    0.00000802
    2   -0.00008643    0.00003715    0.00004404   -0.00004290   -0.00000103
    3    0.00004226   -0.00000336    0.00002511    0.00002701   -0.00003739
            21            22            23            24            25
    1   -0.00013244   -0.00013526   -0.00004263   -0.00004277   -0.00000100
    2   -0.00000533    0.00000549    0.00003489   -0.00003503   -0.00004006
    3    0.00009019    0.00009076   -0.00003805   -0.00003809   -0.00003801
            26            27
    1    0.00002325   -0.00000132
    2    0.00000021    0.00004036
    3    0.00001864   -0.00003789
 Gradient time:  CPU 0.23 s  wall 0.13 s
 Geometry Optimization Parameters
   NAtoms,    NIC,     NZ,  NCons,   NDum,   NFix, NCnnct, MaxDiis
       27     195       0       0       0       0       0       0

 Cartesian Hessian Update
 Hessian Updated using BFGS Update


** GEOMETRY OPTIMIZATION IN DELOCALIZED INTERNAL COORDINATES **
   Searching for a Minimum

   Optimization Cycle:   2

                       Coordinates (Angstroms)
     ATOM                X               Y               Z
      1  C        -1.5978351058   -1.5346215282   -1.1426064106
      2  Si       -1.8244443738    0.0000743136   -0.0829694541
      3  C        -1.5985983659    1.5353077248   -1.1419992427
      4  C        -3.5366152512   -0.0004230732    0.6971514767
      5  C        -0.5173187659    0.0001099905    1.2954128238
      6  C         0.8777692535    0.0000306677    0.7319295477
      7  C         1.5357476092    1.2061505411    0.4305624872
      8  C         1.5356680116   -1.2062133271    0.4308625704
      9  C         2.8096953628   -1.2094959790   -0.1493063114
     10  C         3.4493904631   -0.0002059534   -0.4493575886
     11  C         2.8097762020    1.2091976211   -0.1495961165
     12  H        -1.7203735805   -2.4488948663   -0.5514235837
     13  H        -2.3357679594   -1.5600008549   -1.9520435384
     14  H        -0.6008295133   -1.5567897255   -1.5946761696
     15  H        -1.7212870325    2.4492752437   -0.5503760677
     16  H        -2.3367908508    1.5607893745   -1.9512006897
     17  H        -0.6017439201    1.5580274388   -1.5943699847
     18  H        -3.6862440074    0.8848301768    1.3245783075
     19  H        -3.6855887397   -0.8854598965    1.3250380343
     20  H        -4.3187617580   -0.0009098359   -0.0698034020
     21  H        -0.6727020562   -0.8823782183    1.9297701090
     22  H        -0.6726900659    0.8826494720    1.9297042203
     23  H         1.0469376336    2.1508642813    0.6631412495
     24  H         1.0467876136   -2.1508349479    0.6636680567
     25  H         3.3000798061   -2.1548765254   -0.3685906694
     26  H         4.4388587319   -0.0002898755   -0.8985911980
     27  H         3.3002238272    2.1544927201   -0.3691093539
   Point Group: c1    Number of degrees of freedom:    75


   Energy is   -678.624265958

 Hessian Updated using BFGS Update

 63 Hessian modes will be used to form the next step
  Hessian Eigenvalues:
     0.002000    0.002548    0.002929    0.002945    0.008700    0.016626
     0.021766    0.022415    0.022532    0.022739    0.022876    0.022902
     0.022940    0.041613    0.046321    0.047180    0.048404    0.053637
     0.053946    0.054102    0.054244    0.054252    0.054730    0.054739
     0.093058    0.127804    0.143570    0.144381    0.159531    0.159979
     0.161556    0.193818    0.201128    0.203731    0.208720    0.218751
     0.219979    0.219992    0.234591    0.249682    0.320297    0.338977
     0.339066    0.342175    0.342418    0.342426    0.342435    0.342611
     0.342784    0.342879    0.343656    0.344392    0.348905    0.349039
     0.350464    0.350622    0.351292    0.416619    0.416897    0.453287
     0.460693    0.462393    0.488633

 Minimum Search - Taking Simple RFO Step
 Searching for Lamda that Minimizes Along All modes
 Value Taken    Lamda =  -0.00000787
 Step Taken.  Stepsize is  0.023980

                             Maximum     Tolerance    Cnvgd?
         Gradient           0.000455      0.000020      NO
         Displacement       0.018999      0.000120      NO
         Energy change     -0.000166      0.000000      NO


 New Cartesian Coordinates Obtained by Inverse Iteration

 Displacement from previous Coordinates is:  0.035926
 ----------------------------------------------------------------
             Standard Nuclear Orientation (Angstroms)
    I     Atom           X                Y                Z
 ----------------------------------------------------------------
    1      C      -1.5969171468    -1.5349102569    -1.1420673668
    2      Si     -1.8245184411    -0.0002487119    -0.0822837347
    3      C      -1.5956698279     1.5341398501    -1.1422073763
    4      C      -3.5371681421     0.0005567805     0.6958336800
    5      C      -0.5173704774    -0.0007108019     1.2978538200
    6      C       0.8771387731    -0.0002408055     0.7333526262
    7      C       1.5347125727     1.2059943778     0.4328039373
    8      C       1.5353404599    -1.2059668743     0.4321241812
    9      C       2.8078798280    -1.2086606280    -0.1506745576
   10      C       3.4462379590     0.0007682247    -0.4517774061
   11      C       2.8072622059     1.2096950789    -0.1499940856
   12      H      -1.7150140189    -2.4501091419    -0.5513985923
   13      H      -2.3367726471    -1.5627041375    -1.9497627661
   14      H      -0.6013306184    -1.5538945025    -1.5970766901
   15      H      -1.7128060475     2.4494791911    -0.5515654942
   16      H      -2.3356606357     1.5625715676    -1.9497581891
   17      H      -0.6001624766     1.5521813526    -1.5974294247
   18      H      -3.6871758755     0.8858912059     1.3229638620
   19      H      -3.6878049841    -0.8842679210     1.3235280800
   20      H      -4.3184926486     0.0005974591    -0.0719337630
   21      H      -0.6715821247    -0.8838168994     1.9314383060
   22      H      -0.6717987795     0.8818632065     1.9321275683
   23      H       1.0465177508     2.1503820437     0.6676684112
   24      H       1.0476375444    -2.1507423418     0.6664525486
   25      H       3.2986198919    -2.1537018969    -0.3702736026
   26      H       4.4347295215     0.0011462847    -0.9030803021
   27      H       3.2975115527     2.1551132554    -0.3690645674
 ----------------------------------------------------------------
 Molecular Point Group                 C1    NOp =  1
 Largest Abelian Subgroup              C1    NOp =  1
 Nuclear Repulsion Energy =   684.6058625231 hartrees
 There are       45 alpha and       45 beta electrons
 Applying Cartesian multipole field
    Component          Value
    ---------          -----
     (2,0,0)        1.00000E-11
     (0,2,0)        2.00000E-11
     (0,0,2)       -3.00000E-11
 Nucleus-field energy     =     0.0000000174 hartrees
 Requested basis set is 6-311+G(d,p)
 There are 137 shells and 346 basis functions
 A cutoff of  1.0D-11 yielded   7757 shell pairs
 There are     51296 function pairs (     54558 Cartesian)
 Smallest overlap matrix eigenvalue = 2.14E-06

 Q-Chem warning in module stvman/mkSTV.C, line 295:

 Overlap eigenvalue is smaller than square root of threshold

 Guess MOs from SCF MO coefficient file
 Reading MOs from coefficient file
 Reading MOs from coefficient file

 -----------------------------------------------------------------------
  General SCF calculation program by
  Eric Jon Sundstrom, Paul Horn, Yuezhi Mao, Dmitri Zuev, Alec White,
  David Stuck, Shaama M.S., Shane Yost, Joonho Lee, David Small,
  Daniel Levine, Susi Lehtola, Hugh Burton, Evgeny Epifanovsky
 -----------------------------------------------------------------------
 Hartree-Fock
 using 4 threads for integral computing
 -------------------------------------------------------
 OpenMP Integral computing Module                
 Release: version 1.0, May 2013, Q-Chem Inc. Pittsburgh 
 -------------------------------------------------------
 A restricted SCF calculation will be
 performed using DIIS
 SCF converges when DIIS error is below 1.0e-08
 ---------------------------------------
  Cycle       Energy         DIIS error
 ---------------------------------------
    1    -677.0731841157      4.75e-05  
    2    -677.0716352643      8.28e-06  
    3    -677.0716373104      3.44e-06  
    4    -677.0716375999      1.62e-06  
    5    -677.0716376714      4.06e-07  
    6    -677.0716376762      1.38e-07  
    7    -677.0716376769      4.14e-08  
    8    -677.0716376770      1.36e-08  
    9    -677.0716376770      5.26e-09  Convergence criterion met
 ---------------------------------------
 SCF time:   CPU 138.83s  wall 35.00s 
 SCF   energy in the final basis set =     -677.0716376770
 Total energy in the final basis set =     -677.0716376770
 
 Components of the MP2 correlation energy:
        aaaa  correlation energy =        -0.1920364181 au
        abab  correlation energy =        -1.1685607655 au
        bbbb  correlation energy =        -0.1920364181 au
        non-Brillouin singles    =        -0.0000000000 au

 Total  MP2   correlation energy =                    -1.55263360 au
        MP2         total energy =                  -678.62427128 au
  Entering Z-vector solver.
   1         0           1      0.000160    0.000160
   2         0           1      0.000048    0.000048
   3         0           1      0.000016    0.000016
   4         0           1      0.000009    0.000009
   5         0           1      0.000004    0.000004
   6         0           1      0.000002    0.000002
   7         1           0      0.000000    0.000000    Roots Converged
 
 --------------------------------------------------------------
 
                    Orbital Energies (a.u.)
 --------------------------------------------------------------
 
 Alpha MOs
 -- Occupied --
-68.753 -11.247 -11.237 -11.237 -11.231 -11.231 -11.231 -11.210
-11.199 -11.195 -11.195  -6.100  -4.207  -4.207  -4.206  -1.149
 -1.043  -1.009  -0.967  -0.922  -0.920  -0.918  -0.823  -0.794
 -0.690  -0.634  -0.632  -0.628  -0.582  -0.575  -0.569  -0.564
 -0.555  -0.542  -0.537  -0.529  -0.527  -0.505  -0.486  -0.484
 -0.433  -0.427  -0.425  -0.333  -0.311
 -- Virtual --
  0.051   0.064   0.065   0.071   0.086   0.088   0.100   0.104
  0.108   0.115   0.118   0.119   0.123   0.132   0.140   0.144
  0.146   0.150   0.155   0.158   0.168   0.176   0.187   0.196
  0.196   0.201   0.202   0.205   0.209   0.212   0.219   0.230
  0.230   0.233   0.244   0.248   0.259   0.264   0.270   0.276
  0.278   0.280   0.287   0.289   0.299   0.303   0.310   0.311
  0.319   0.323   0.324   0.331   0.334   0.344   0.358   0.363
  0.368   0.370   0.378   0.382   0.388   0.400   0.405   0.425
  0.430   0.437   0.443   0.472   0.480   0.486   0.491   0.496
  0.508   0.511   0.532   0.535   0.554   0.631   0.632   0.653
  0.676   0.679   0.684   0.692   0.705   0.710   0.730   0.731
  0.738   0.753   0.753   0.759   0.769   0.798   0.808   0.813
  0.829   0.830   0.846   0.864   0.865   0.873   0.885   0.905
  0.913   0.914   0.921   0.925   0.931   0.933   0.939   0.953
  0.959   0.962   0.965   0.979   0.985   0.989   1.006   1.007
  1.019   1.035   1.055   1.071   1.077   1.094   1.107   1.109
  1.113   1.141   1.162   1.184   1.197   1.200   1.213   1.227
  1.265   1.266   1.290   1.304   1.305   1.336   1.340   1.379
  1.383   1.399   1.421   1.487   1.496   1.521   1.539   1.627
  1.663   1.718   1.727   1.737   1.742   1.762   1.762   1.787
  1.791   1.793   1.802   1.838   1.842   1.856   1.860   1.861
  1.877   1.880   1.886   1.894   1.895   1.910   1.919   1.925
  1.964   1.978   1.987   2.000   2.002   2.009   2.020   2.037
  2.057   2.064   2.080   2.103   2.108   2.110   2.123   2.126
  2.154   2.204   2.224   2.233   2.246   2.255   2.257   2.265
  2.291   2.333   2.338   2.369   2.377   2.379   2.395   2.468
  2.496   2.501   2.515   2.527   2.540   2.551   2.577   2.589
  2.649   2.668   2.716   2.742   2.762   2.770   2.787   2.799
  2.813   2.832   2.839   2.875   2.875   2.903   2.916   2.931
  2.933   2.955   2.963   2.970   2.975   2.986   2.986   2.990
  3.010   3.023   3.032   3.052   3.061   3.075   3.083   3.102
  3.142   3.151   3.212   3.220   3.253   3.274   3.304   3.309
  3.336   3.337   3.356   3.361   3.495   3.513   3.611   3.644
  3.719   3.731   3.737   3.789   3.811   3.919   3.957   4.006
  4.112   4.142   4.148   4.155   4.178   4.190   4.203   4.212
  4.400   4.447   4.563   4.575   4.735   5.273   6.381  12.440
 12.467  12.494  24.765  25.067  25.108  25.111  25.130  25.131
 25.166  25.229  25.244  25.338 144.155
 --------------------------------------------------------------
 
          Ground-State Mulliken Net Atomic Charges

     Atom                 Charge (a.u.)
  ----------------------------------------
      1 C                    -0.891071
      2 Si                    1.294030
      3 C                    -0.891136
      4 C                    -0.807516
      5 C                    -1.057811
      6 C                     1.255030
      7 C                    -0.475211
      8 C                    -0.476469
      9 C                    -0.171588
     10 C                    -0.227563
     11 C                    -0.171938
     12 H                     0.177286
     13 H                     0.172902
     14 H                     0.195204
     15 H                     0.177307
     16 H                     0.172901
     17 H                     0.195234
     18 H                     0.170124
     19 H                     0.170130
     20 H                     0.169111
     21 H                     0.194511
     22 H                     0.194538
     23 H                     0.120158
     24 H                     0.120174
     25 H                     0.130738
     26 H                     0.130188
     27 H                     0.130737
  ----------------------------------------
  Sum of atomic charges =     0.000000

 -----------------------------------------------------------------
                    Cartesian Multipole Moments
 -----------------------------------------------------------------
    Charge (ESU x 10^10)
                 0.0000
    Dipole Moment (Debye)
         X      -0.5771      Y      -0.0001      Z      -0.0085
       Tot       0.5772
    Quadrupole Moments (Debye-Ang)
        XX     -76.9954     XY       0.0006     YY     -74.7621
        XZ      -2.5066     YZ       0.0007     ZZ     -80.6738
    Octopole Moments (Debye-Ang^2)
       XXX      14.2578    XXY      -0.0007    XYY       6.7676
       YYY       0.0028    XXZ     -18.6848    XYZ       0.0050
       YYZ       6.6137    XZZ      -9.4514    YZZ      -0.0010
       ZZZ      -1.1202
    Hexadecapole Moments (Debye-Ang^3)
      XXXX   -2448.4458   XXXY      -0.0924   XXYY    -495.5630
      XYYY      -0.1198   YYYY    -618.8667   XXXZ     -23.9485
      XXYZ      -0.0218   XYYZ     -15.1395   YYYZ      -0.0285
      XXZZ    -493.5855   XYZZ      -0.0462   YYZZ    -183.2723
      XZZZ       4.3114   YZZZ      -0.0288   ZZZZ    -426.9866
 -----------------------------------------------------------------
 DrvMan is completing analytic gradient of the MP2 energy
 MP2 relaxed dipole moment
            1
    1  -0.2270499
    2  -0.0000318
    3  -0.0033475
	Magnitude:	 0.227 au	 0.577 Debye
 MP2 energy read as -678.624271
 Full Analytical Gradient of MP2 Energy (in au.)
             1             2             3             4             5
    1   -0.00002649    0.00009367   -0.00002817   -0.00003503    0.00002266
    2   -0.00000383   -0.00000275    0.00000839    0.00000077    0.00000162
    3   -0.00005449    0.00005379   -0.00005202   -0.00000208   -0.00025330
             6             7             8             9            10
    1   -0.00001800   -0.00007777   -0.00006136    0.00005827    0.00004516
    2   -0.00000029    0.00004891   -0.00006006   -0.00006140    0.00000426
    3    0.00016244   -0.00001961   -0.00002047    0.00004900   -0.00010955
            11            12            13            14            15
    1    0.00007043   -0.00002357    0.00000909    0.00000269   -0.00002432
    2    0.00006409    0.00002867    0.00002577   -0.00002575   -0.00002967
    3    0.00004452    0.00006916    0.00000823    0.00000278    0.00007057
            16            17            18            19            20
    1    0.00001167    0.00000398    0.00001950    0.00002028    0.00000639
    2   -0.00002550    0.00002473    0.00001591   -0.00001429    0.00000041
    3    0.00000653   -0.00000048    0.00000006    0.00000031   -0.00000515
            21            22            23            24            25
    1   -0.00002225   -0.00001982    0.00000211    0.00000228   -0.00001530
    2   -0.00000820    0.00000866   -0.00000898    0.00000903    0.00000381
    3    0.00002837    0.00002546   -0.00000695   -0.00000719   -0.00001168
            26            27
    1   -0.00000172   -0.00001438
    2    0.00000006   -0.00000436
    3    0.00003424   -0.00001249
 Gradient time:  CPU 0.23 s  wall 0.13 s
 Geometry Optimization Parameters
   NAtoms,    NIC,     NZ,  NCons,   NDum,   NFix, NCnnct, MaxDiis
       27     195       0       0       0       0       0       0

 Cartesian Hessian Update
 Hessian Updated using BFGS Update


** GEOMETRY OPTIMIZATION IN DELOCALIZED INTERNAL COORDINATES **
   Searching for a Minimum

   Optimization Cycle:   3

                       Coordinates (Angstroms)
     ATOM                X               Y               Z
      1  C        -1.5969171468   -1.5349102569   -1.1420673668
      2  Si       -1.8245184411   -0.0002487119   -0.0822837347
      3  C        -1.5956698279    1.5341398501   -1.1422073763
      4  C        -3.5371681421    0.0005567805    0.6958336800
      5  C        -0.5173704774   -0.0007108019    1.2978538200
      6  C         0.8771387731   -0.0002408055    0.7333526262
      7  C         1.5347125727    1.2059943778    0.4328039373
      8  C         1.5353404599   -1.2059668743    0.4321241812
      9  C         2.8078798280   -1.2086606280   -0.1506745576
     10  C         3.4462379590    0.0007682247   -0.4517774061
     11  C         2.8072622059    1.2096950789   -0.1499940856
     12  H        -1.7150140189   -2.4501091419   -0.5513985923
     13  H        -2.3367726471   -1.5627041375   -1.9497627661
     14  H        -0.6013306184   -1.5538945025   -1.5970766901
     15  H        -1.7128060475    2.4494791911   -0.5515654942
     16  H        -2.3356606357    1.5625715676   -1.9497581891
     17  H        -0.6001624766    1.5521813526   -1.5974294247
     18  H        -3.6871758755    0.8858912059    1.3229638620
     19  H        -3.6878049841   -0.8842679210    1.3235280800
     20  H        -4.3184926486    0.0005974591   -0.0719337630
     21  H        -0.6715821247   -0.8838168994    1.9314383060
     22  H        -0.6717987795    0.8818632065    1.9321275683
     23  H         1.0465177508    2.1503820437    0.6676684112
     24  H         1.0476375444   -2.1507423418    0.6664525486
     25  H         3.2986198919   -2.1537018969   -0.3702736026
     26  H         4.4347295215    0.0011462847   -0.9030803021
     27  H         3.2975115527    2.1551132554   -0.3690645674
   Point Group: c1    Number of degrees of freedom:    75


   Energy is   -678.624271279

 Hessian Updated using BFGS Update

 66 Hessian modes will be used to form the next step
  Hessian Eigenvalues:
     0.002005    0.002364    0.002548    0.002945    0.008703    0.016546
     0.020410    0.022415    0.022597    0.022856    0.022900    0.022919
     0.023145    0.041618    0.041678    0.046481    0.048406    0.052979
     0.053936    0.054102    0.054244    0.054283    0.054698    0.054732
     0.094041    0.127805    0.141010    0.143572    0.148921    0.159973
     0.159974    0.159988    0.159991    0.161106    0.193925    0.200814
     0.203728    0.204401    0.218711    0.219991    0.222777    0.234885
     0.250013    0.322916    0.338707    0.339066    0.342186    0.342391
     0.342419    0.342427    0.342616    0.342783    0.342835    0.343656
     0.345585    0.349039    0.349554    0.350622    0.351078    0.351854
     0.416890    0.416954    0.453281    0.460948    0.462382    0.492998

 Minimum Search - Taking Simple RFO Step
 Searching for Lamda that Minimizes Along All modes
 Value Taken    Lamda =  -0.00000308
 Step Taken.  Stepsize is  0.024171

                             Maximum     Tolerance    Cnvgd?
         Gradient           0.000206      0.000020      NO
         Displacement       0.020364      0.000120      NO
         Energy change     -0.000005      0.000000      NO


 New Cartesian Coordinates Obtained by Inverse Iteration

 Displacement from previous Coordinates is:  0.039148
 ----------------------------------------------------------------
             Standard Nuclear Orientation (Angstroms)
    I     Atom           X                Y                Z
 ----------------------------------------------------------------
    1      C      -1.5935364371    -1.5342055656    -1.1410449815
    2      Si     -1.8243790242    -0.0001817390    -0.0808589119
    3      C      -1.5928013811     1.5335011474    -1.1413724838
    4      C      -3.5381776052     0.0003411845     0.6944622668
    5      C      -0.5180466058    -0.0004019481     1.3008172984
    6      C       0.8759522985    -0.0000350016     0.7347702747
    7      C       1.5336197995     1.2060235551     0.4340925162
    8      C       1.5337367890    -1.2057616556     0.4330750534
    9      C       2.8049519898    -1.2086714064    -0.1523523622
   10      C       3.4429904251     0.0005754087    -0.4542703891
   11      C       2.8048312018     1.2095143144    -0.1513416660
   12      H      -1.7063096749    -2.4506447589    -0.5513151562
   13      H      -2.3348915531    -1.5648138069    -1.9473324609
   14      H      -0.5989507373    -1.5485593112    -1.5983764998
   15      H      -1.7048788288     2.4501262262    -0.5517996088
   16      H      -2.3343377613     1.5644078183    -1.9474847118
   17      H      -0.5983133492     1.5471744433    -1.5989256652
   18      H      -3.6896514268     0.8855274743     1.3214037479
   19      H      -3.6900603008    -0.8844878111     1.3218089165
   20      H      -4.3182266015     0.0003465476    -0.0746131671
   21      H      -0.6717561988    -0.8837090470     1.9340952953
   22      H      -0.6720181284     0.8824400974     1.9346881534
   23      H       1.0461870066     2.1504893159     0.6702607784
   24      H       1.0463826656    -2.1504649503     0.6684602798
   25      H       3.2954232778    -2.1537462532    -0.3724091334
   26      H       4.4303857060     0.0008059665    -0.9080261224
   27      H       3.2952176225     2.1548147144    -0.3706121584
 ----------------------------------------------------------------
 Molecular Point Group                 C1    NOp =  1
 Largest Abelian Subgroup              C1    NOp =  1
 Nuclear Repulsion Energy =   684.7314220094 hartrees
 There are       45 alpha and       45 beta electrons
 Applying Cartesian multipole field
    Component          Value
    ---------          -----
     (2,0,0)        1.00000E-11
     (0,2,0)        2.00000E-11
     (0,0,2)       -3.00000E-11
 Nucleus-field energy     =     0.0000000174 hartrees
 Requested basis set is 6-311+G(d,p)
 There are 137 shells and 346 basis functions
 A cutoff of  1.0D-11 yielded   7759 shell pairs
 There are     51304 function pairs (     54566 Cartesian)
 Smallest overlap matrix eigenvalue = 2.14E-06

 Q-Chem warning in module stvman/mkSTV.C, line 295:

 Overlap eigenvalue is smaller than square root of threshold

 Guess MOs from SCF MO coefficient file
 Reading MOs from coefficient file
 Reading MOs from coefficient file

 -----------------------------------------------------------------------
  General SCF calculation program by
  Eric Jon Sundstrom, Paul Horn, Yuezhi Mao, Dmitri Zuev, Alec White,
  David Stuck, Shaama M.S., Shane Yost, Joonho Lee, David Small,
  Daniel Levine, Susi Lehtola, Hugh Burton, Evgeny Epifanovsky
 -----------------------------------------------------------------------
 Hartree-Fock
 using 4 threads for integral computing
 -------------------------------------------------------
 OpenMP Integral computing Module                
 Release: version 1.0, May 2013, Q-Chem Inc. Pittsburgh 
 -------------------------------------------------------
 A restricted SCF calculation will be
 performed using DIIS
 SCF converges when DIIS error is below 1.0e-08
 ---------------------------------------
  Cycle       Energy         DIIS error
 ---------------------------------------
    1    -677.0725381770      4.35e-05  
    2    -677.0716150824      7.77e-06  
    3    -677.0716169872      2.84e-06  
    4    -677.0716172207      1.34e-06  
    5    -677.0716172675      3.61e-07  
    6    -677.0716172710      1.26e-07  
    7    -677.0716172716      3.53e-08  
    8    -677.0716172717      1.04e-08  
    9    -677.0716172717      3.71e-09  Convergence criterion met
 ---------------------------------------
 SCF time:   CPU 140.08s  wall 35.00s 
 SCF   energy in the final basis set =     -677.0716172717
 Total energy in the final basis set =     -677.0716172717
 
 Components of the MP2 correlation energy:
        aaaa  correlation energy =        -0.1920428724 au
        abab  correlation energy =        -1.1685698799 au
        bbbb  correlation energy =        -0.1920428724 au
        non-Brillouin singles    =        -0.0000000000 au

 Total  MP2   correlation energy =                    -1.55265562 au
        MP2         total energy =                  -678.62427290 au
  Entering Z-vector solver.
   1         0           1      0.000159    0.000159
   2         0           1      0.000048    0.000048
   3         0           1      0.000016    0.000016
   4         0           1      0.000009    0.000009
   5         0           1      0.000004    0.000004
   6         0           1      0.000002    0.000002
   7         1           0      0.000000    0.000000    Roots Converged
 
 --------------------------------------------------------------
 
                    Orbital Energies (a.u.)
 --------------------------------------------------------------
 
 Alpha MOs
 -- Occupied --
-68.753 -11.246 -11.237 -11.237 -11.231 -11.231 -11.231 -11.210
-11.199 -11.195 -11.195  -6.100  -4.207  -4.207  -4.207  -1.149
 -1.043  -1.009  -0.967  -0.922  -0.920  -0.918  -0.823  -0.794
 -0.690  -0.634  -0.632  -0.628  -0.582  -0.575  -0.569  -0.564
 -0.555  -0.542  -0.537  -0.529  -0.527  -0.505  -0.486  -0.484
 -0.433  -0.427  -0.425  -0.333  -0.311
 -- Virtual --
  0.051   0.064   0.065   0.071   0.086   0.088   0.100   0.104
  0.108   0.115   0.118   0.119   0.123   0.132   0.140   0.144
  0.146   0.150   0.155   0.158   0.168   0.176   0.187   0.196
  0.196   0.201   0.202   0.205   0.209   0.212   0.219   0.230
  0.230   0.233   0.244   0.248   0.259   0.265   0.270   0.276
  0.278   0.280   0.287   0.289   0.299   0.303   0.310   0.311
  0.319   0.323   0.324   0.331   0.334   0.344   0.357   0.363
  0.368   0.370   0.378   0.382   0.388   0.400   0.405   0.425
  0.430   0.437   0.443   0.472   0.480   0.486   0.491   0.496
  0.508   0.511   0.532   0.536   0.554   0.631   0.632   0.653
  0.676   0.679   0.684   0.692   0.705   0.710   0.730   0.731
  0.738   0.753   0.753   0.759   0.769   0.798   0.808   0.813
  0.829   0.830   0.846   0.864   0.865   0.874   0.885   0.906
  0.913   0.914   0.921   0.925   0.931   0.933   0.939   0.953
  0.959   0.962   0.965   0.979   0.985   0.989   1.006   1.007
  1.019   1.035   1.055   1.072   1.077   1.094   1.107   1.109
  1.113   1.141   1.162   1.184   1.197   1.200   1.214   1.227
  1.266   1.266   1.290   1.304   1.306   1.336   1.341   1.379
  1.383   1.399   1.421   1.487   1.496   1.521   1.539   1.628
  1.663   1.718   1.727   1.737   1.742   1.762   1.762   1.787
  1.791   1.793   1.803   1.838   1.842   1.856   1.860   1.861
  1.877   1.880   1.886   1.895   1.895   1.910   1.919   1.925
  1.964   1.978   1.987   1.999   2.002   2.009   2.020   2.037
  2.057   2.064   2.080   2.103   2.108   2.110   2.123   2.126
  2.154   2.203   2.224   2.233   2.246   2.255   2.257   2.265
  2.291   2.333   2.338   2.369   2.377   2.380   2.395   2.468
  2.496   2.500   2.515   2.527   2.540   2.551   2.577   2.588
  2.649   2.668   2.717   2.742   2.762   2.770   2.787   2.799
  2.813   2.832   2.839   2.875   2.875   2.903   2.916   2.930
  2.933   2.955   2.963   2.969   2.975   2.986   2.986   2.990
  3.010   3.023   3.032   3.052   3.061   3.075   3.084   3.102
  3.143   3.151   3.212   3.221   3.254   3.274   3.304   3.309
  3.336   3.337   3.356   3.362   3.495   3.513   3.612   3.644
  3.719   3.731   3.736   3.789   3.812   3.920   3.957   4.006
  4.112   4.143   4.148   4.155   4.178   4.190   4.203   4.213
  4.400   4.448   4.563   4.575   4.735   5.273   6.380  12.440
 12.467  12.494  24.765  25.067  25.108  25.111  25.130  25.131
 25.166  25.229  25.244  25.339 144.155
 --------------------------------------------------------------
 
          Ground-State Mulliken Net Atomic Charges

     Atom                 Charge (a.u.)
  ----------------------------------------
      1 C                    -0.891447
      2 Si                    1.294989
      3 C                    -0.891471
      4 C                    -0.807503
      5 C                    -1.057317
      6 C                     1.250639
      7 C                    -0.471565
      8 C                    -0.472784
      9 C                    -0.173531
     10 C                    -0.227459
     11 C                    -0.173773
     12 H                     0.177400
     13 H                     0.172900
     14 H                     0.195208
     15 H                     0.177413
     16 H                     0.172894
     17 H                     0.195223
     18 H                     0.170188
     19 H                     0.170193
     20 H                     0.169076
     21 H                     0.194532
     22 H                     0.194533
     23 H                     0.120024
     24 H                     0.120059
     25 H                     0.130716
     26 H                     0.130148
     27 H                     0.130715
  ----------------------------------------
  Sum of atomic charges =     0.000000

 -----------------------------------------------------------------
                    Cartesian Multipole Moments
 -----------------------------------------------------------------
    Charge (ESU x 10^10)
                 0.0000
    Dipole Moment (Debye)
         X      -0.5802      Y       0.0000      Z      -0.0085
       Tot       0.5803
    Quadrupole Moments (Debye-Ang)
        XX     -76.9971     XY       0.0010     YY     -74.7574
        XZ      -2.5172     YZ       0.0023     ZZ     -80.6651
    Octopole Moments (Debye-Ang^2)
       XXX      14.2185    XXY       0.0012    XYY       6.7776
       YYY      -0.0010    XXZ     -18.7106    XYZ       0.0072
       YYZ       6.5899    XZZ      -9.3878    YZZ      -0.0030
       ZZZ      -1.1743
    Hexadecapole Moments (Debye-Ang^3)
      XXXX   -2445.9031   XXXY      -0.0888   XXYY    -495.0436
      XYYY      -0.1180   YYYY    -618.5106   XXXZ     -23.6187
      XXYZ      -0.0139   XYYZ     -14.9064   YYYZ      -0.0398
      XXZZ    -492.9352   XYZZ      -0.0477   YYZZ    -183.2419
      XZZZ       4.7627   YZZZ      -0.0493   ZZZZ    -427.3953
 -----------------------------------------------------------------
 DrvMan is completing analytic gradient of the MP2 energy
 MP2 relaxed dipole moment
            1
    1  -0.2282874
    2   0.0000015
    3  -0.0033459
	Magnitude:	 0.228 au	 0.580 Debye
 MP2 energy read as -678.624273
 Full Analytical Gradient of MP2 Energy (in au.)
             1             2             3             4             5
    1    0.00003585   -0.00007812    0.00003716    0.00003491    0.00004344
    2    0.00001485    0.00000107   -0.00001499    0.00000031   -0.00001549
    3    0.00001190   -0.00004805    0.00000935    0.00000415    0.00002578
             6             7             8             9            10
    1    0.00003914    0.00000203    0.00000567   -0.00000215   -0.00007013
    2    0.00000826   -0.00002647    0.00003678    0.00002694   -0.00000188
    3    0.00001855   -0.00002368   -0.00002341    0.00002316   -0.00000150
            11            12            13            14            15
    1    0.00000087   -0.00001144    0.00000458   -0.00001865   -0.00001119
    2   -0.00002917    0.00000152   -0.00000830   -0.00001849   -0.00000152
    3    0.00002191    0.00000960   -0.00000716   -0.00000693    0.00000907
            16            17            18            19            20
    1    0.00000337   -0.00002128   -0.00000468   -0.00000572   -0.00000409
    2    0.00000828    0.00001894   -0.00000459    0.00000478    0.00000005
    3   -0.00000706   -0.00000655   -0.00000649   -0.00000585    0.00000767
            21            22            23            24            25
    1    0.00000690    0.00000482    0.00000787    0.00000662   -0.00000359
    2   -0.00000743    0.00000849   -0.00000533    0.00000519    0.00000802
    3   -0.00001800   -0.00001391    0.00001154    0.00001130   -0.00000223
            26            27
    1    0.00000225   -0.00000445
    2   -0.00000121   -0.00000861
    3    0.00000870   -0.00000188
 Gradient time:  CPU 0.23 s  wall 0.13 s
 Geometry Optimization Parameters
   NAtoms,    NIC,     NZ,  NCons,   NDum,   NFix, NCnnct, MaxDiis
       27     195       0       0       0       0       0       0

 Cartesian Hessian Update
 Hessian Updated using BFGS Update


** GEOMETRY OPTIMIZATION IN DELOCALIZED INTERNAL COORDINATES **
   Searching for a Minimum

   Optimization Cycle:   4

                       Coordinates (Angstroms)
     ATOM                X               Y               Z
      1  C        -1.5935364371   -1.5342055656   -1.1410449815
      2  Si       -1.8243790242   -0.0001817390   -0.0808589119
      3  C        -1.5928013811    1.5335011474   -1.1413724838
      4  C        -3.5381776052    0.0003411845    0.6944622668
      5  C        -0.5180466058   -0.0004019481    1.3008172984
      6  C         0.8759522985   -0.0000350016    0.7347702747
      7  C         1.5336197995    1.2060235551    0.4340925162
      8  C         1.5337367890   -1.2057616556    0.4330750534
      9  C         2.8049519898   -1.2086714064   -0.1523523622
     10  C         3.4429904251    0.0005754087   -0.4542703891
     11  C         2.8048312018    1.2095143144   -0.1513416660
     12  H        -1.7063096749   -2.4506447589   -0.5513151562
     13  H        -2.3348915531   -1.5648138069   -1.9473324609
     14  H        -0.5989507373   -1.5485593112   -1.5983764998
     15  H        -1.7048788288    2.4501262262   -0.5517996088
     16  H        -2.3343377613    1.5644078183   -1.9474847118
     17  H        -0.5983133492    1.5471744433   -1.5989256652
     18  H        -3.6896514268    0.8855274743    1.3214037479
     19  H        -3.6900603008   -0.8844878111    1.3218089165
     20  H        -4.3182266015    0.0003465476   -0.0746131671
     21  H        -0.6717561988   -0.8837090470    1.9340952953
     22  H        -0.6720181284    0.8824400974    1.9346881534
     23  H         1.0461870066    2.1504893159    0.6702607784
     24  H         1.0463826656   -2.1504649503    0.6684602798
     25  H         3.2954232778   -2.1537462532   -0.3724091334
     26  H         4.4303857060    0.0008059665   -0.9080261224
     27  H         3.2952176225    2.1548147144   -0.3706121584
   Point Group: c1    Number of degrees of freedom:    75


   Energy is   -678.624272896

 Hessian Updated using BFGS Update

 69 Hessian modes will be used to form the next step
  Hessian Eigenvalues:
     0.001985    0.002137    0.002548    0.002945    0.008701    0.016422
     0.020544    0.022415    0.022642    0.022739    0.022827    0.022898
     0.022919    0.023095    0.039941    0.041649    0.046901    0.048411
     0.053212    0.053935    0.054103    0.054245    0.054310    0.054731
     0.054806    0.094028    0.127804    0.136406    0.143589    0.148291
     0.159969    0.159973    0.159991    0.159995    0.160000    0.160249
     0.162191    0.196706    0.200811    0.203724    0.205109    0.217883
     0.220110    0.221634    0.234856    0.250414    0.322440    0.338825
     0.339073    0.342225    0.342352    0.342419    0.342427    0.342616
     0.342784    0.342869    0.343660    0.345688    0.349039    0.349519
     0.350622    0.351065    0.351660    0.416886    0.416949    0.453294
     0.460991    0.462425    0.512525

 Minimum Search - Taking Simple RFO Step
 Searching for Lamda that Minimizes Along All modes
 Value Taken    Lamda =   0.00000000
 Step Taken.  Stepsize is  0.006045

                             Maximum     Tolerance    Cnvgd?
         Gradient           0.000073      0.000020      NO
         Displacement       0.004969      0.000120      NO
         Energy change     -0.000002      0.000000      NO


 New Cartesian Coordinates Obtained by Inverse Iteration

 Displacement from previous Coordinates is:  0.009210
 ----------------------------------------------------------------
             Standard Nuclear Orientation (Angstroms)
    I     Atom           X                Y                Z
 ----------------------------------------------------------------
    1      C      -1.5927557030    -1.5335904461    -1.1411451079
    2      Si     -1.8243855568    -0.0000249784    -0.0804622006
    3      C      -1.5928870089     1.5335821720    -1.1410974189
    4      C      -3.5384315823    -0.0001087932     0.6943676384
    5      C      -0.5181798982    -0.0000002275     1.3012746355
    6      C       0.8757187309     0.0000144490     0.7348507011
    7      C       1.5335512237     1.2059576109     0.4339116494
    8      C       1.5334199868    -1.2058667641     0.4333977357
    9      C       2.8045690778    -1.2090044016    -0.1522690912
   10      C       3.4428168789     0.0001419065    -0.4543477716
   11      C       2.8046856293     1.2092222645    -0.1517607381
   12      H      -1.7038147721    -2.4504816192    -0.5518116448
   13      H      -2.3346899038    -1.5647572055    -1.9468826392
   14      H      -0.5984739978    -1.5463591997    -1.5992205831
   15      H      -1.7039055009     2.4504512668    -0.5517214631
   16      H      -2.3349220789     1.5647578007    -1.9467427083
   17      H      -0.5986507217     1.5464070286    -1.5992679090
   18      H      -3.6903492886     0.8849307865     1.3214196330
   19      H      -3.6902369273    -0.8850875064     1.3215324590
   20      H      -4.3182122267    -0.0002093658    -0.0749862949
   21      H      -0.6718996227    -0.8830879861     1.9348518260
   22      H      -0.6719352418     0.8830183967     1.9349371131
   23      H       1.0461659699     2.1505309849     0.6697750736
   24      H       1.0459468197    -2.1504905382     0.6688771703
   25      H       3.2949494790    -2.1541863985    -0.3721122320
   26      H       4.4300949090     0.0001940067    -0.9083624529
   27      H       3.2951544949     2.1544517154    -0.3712062771
 ----------------------------------------------------------------
 Molecular Point Group                 C1    NOp =  1
 Largest Abelian Subgroup              C1    NOp =  1
 Nuclear Repulsion Energy =   684.7419800088 hartrees
 There are       45 alpha and       45 beta electrons
 Applying Cartesian multipole field
    Component          Value
    ---------          -----
     (2,0,0)        1.00000E-11
     (0,2,0)        2.00000E-11
     (0,0,2)       -3.00000E-11
 Nucleus-field energy     =     0.0000000174 hartrees
 Requested basis set is 6-311+G(d,p)
 There are 137 shells and 346 basis functions
 A cutoff of  1.0D-11 yielded   7759 shell pairs
 There are     51304 function pairs (     54566 Cartesian)
 Smallest overlap matrix eigenvalue = 2.14E-06

 Q-Chem warning in module stvman/mkSTV.C, line 295:

 Overlap eigenvalue is smaller than square root of threshold

 Guess MOs from SCF MO coefficient file
 Reading MOs from coefficient file
 Reading MOs from coefficient file

 -----------------------------------------------------------------------
  General SCF calculation program by
  Eric Jon Sundstrom, Paul Horn, Yuezhi Mao, Dmitri Zuev, Alec White,
  David Stuck, Shaama M.S., Shane Yost, Joonho Lee, David Small,
  Daniel Levine, Susi Lehtola, Hugh Burton, Evgeny Epifanovsky
 -----------------------------------------------------------------------
 Hartree-Fock
 using 4 threads for integral computing
 -------------------------------------------------------
 OpenMP Integral computing Module                
 Release: version 1.0, May 2013, Q-Chem Inc. Pittsburgh 
 -------------------------------------------------------
 A restricted SCF calculation will be
 performed using DIIS
 SCF converges when DIIS error is below 1.0e-08
 ---------------------------------------
  Cycle       Energy         DIIS error
 ---------------------------------------
    1    -677.0716298212      9.70e-06  
    2    -677.0716042944      1.92e-06  
    3    -677.0716044000      7.38e-07  
    4    -677.0716044123      3.44e-07  
    5    -677.0716044152      6.77e-08  
    6    -677.0716044153      2.13e-08  
    7    -677.0716044153      6.29e-09  Convergence criterion met
 ---------------------------------------
 SCF time:   CPU 108.23s  wall 27.00s 
 SCF   energy in the final basis set =     -677.0716044153
 Total energy in the final basis set =     -677.0716044153
 
 Components of the MP2 correlation energy:
        aaaa  correlation energy =        -0.1920443974 au
        abab  correlation energy =        -1.1685798129 au
        bbbb  correlation energy =        -0.1920443974 au
        non-Brillouin singles    =        -0.0000000000 au

 Total  MP2   correlation energy =                    -1.55266861 au
        MP2         total energy =                  -678.62427302 au
  Entering Z-vector solver.
   1         0           1      0.000159    0.000159
   2         0           1      0.000048    0.000048
   3         0           1      0.000016    0.000016
   4         0           1      0.000009    0.000009
   5         0           1      0.000004    0.000004
   6         0           1      0.000002    0.000002
   7         1           0      0.000000    0.000000    Roots Converged
 
 --------------------------------------------------------------
 
[...]
 IR Intens:        0.419                 15.483                 11.069
 Raman Active:       YES                    YES                    YES
               X      Y      Z        X      Y      Z        X      Y      Z
 C          0.001  0.001  0.000   -0.004  0.001 -0.002    0.002 -0.024 -0.016
 Si         0.000  0.002  0.000    0.001 -0.000  0.003   -0.001  0.001  0.000
 C         -0.001  0.002  0.004    0.000  0.000 -0.003   -0.001 -0.018  0.012
 C         -0.002 -0.000 -0.003   -0.001 -0.001 -0.004    0.005  0.000 -0.002
 C          0.005  0.031 -0.004    0.035 -0.003 -0.023   -0.012 -0.000  0.045
 C         -0.016 -0.308  0.006   -0.215  0.031  0.097    0.002 -0.001  0.000
 C          0.111  0.197 -0.049    0.270  0.074 -0.121   -0.000 -0.000 -0.000
 C         -0.071  0.182  0.030    0.286 -0.107 -0.130    0.001  0.000 -0.000
 C         -0.088 -0.216  0.041   -0.251 -0.059  0.116   -0.000 -0.000  0.000
 C          0.010  0.372 -0.004    0.127 -0.025 -0.058   -0.000  0.000  0.000
 C          0.049 -0.205 -0.023   -0.260  0.088  0.119   -0.000 -0.000 -0.000
 H         -0.004 -0.005 -0.013    0.035 -0.004  0.000    0.036  0.276 -0.190
 H          0.002 -0.026 -0.003    0.014  0.025 -0.019    0.234  0.002  0.250
 H          0.006 -0.003  0.011    0.000 -0.034  0.002   -0.287 -0.005  0.125
 H          0.000 -0.003  0.016   -0.015 -0.005  0.009   -0.027  0.209  0.144
 H          0.032 -0.003 -0.026   -0.003  0.006 -0.001   -0.173  0.000 -0.184
 H         -0.023 -0.008 -0.048    0.001 -0.015  0.001    0.212 -0.004 -0.093
 H          0.008 -0.024  0.031    0.001 -0.005  0.011   -0.006  0.052  0.036
 H         -0.005  0.029  0.033    0.008  0.001  0.008   -0.008 -0.054  0.038
 H          0.014 -0.013 -0.018   -0.013  0.018  0.009   -0.043 -0.000 -0.046
 H          0.140 -0.002 -0.006    0.019  0.032  0.021    0.067  0.400 -0.271
 H         -0.162 -0.034  0.043    0.045 -0.035  0.022    0.066 -0.397 -0.269
 H         -0.277 -0.036  0.120   -0.248 -0.261  0.110   -0.002  0.003  0.002
 H          0.251 -0.002 -0.106   -0.285  0.260  0.138   -0.000  0.001  0.001
 H          0.235 -0.039 -0.109    0.183  0.231 -0.098   -0.002  0.003  0.001
 H          0.013 -0.467 -0.005    0.142  0.010 -0.081    0.002 -0.000 -0.001
 H         -0.214 -0.071  0.091    0.213 -0.220 -0.109    0.000  0.001  0.000
 TransDip  -0.009 -0.019  0.002   -0.125  0.000  0.018   -0.056 -0.068  0.060

 Mode:                61                     62                     63
 Frequency:      3060.07                3060.19                3061.39
 Force Cnst:      5.7158                 5.7740                 5.7221
 Red. Mass:       1.0360                 1.0465                 1.0363
 IR Active:          YES                    YES                    YES
 IR Intens:        3.199                 12.158                 12.881
 Raman Active:       YES                    YES                    YES
               X      Y      Z        X      Y      Z        X      Y      Z
 C         -0.001  0.019  0.012   -0.002  0.029  0.019   -0.000  0.001  0.001
 Si         0.000  0.000 -0.001   -0.000 -0.001 -0.000   -0.001  0.000  0.000
 C         -0.003 -0.036  0.024    0.001  0.009 -0.007   -0.000 -0.004  0.003
 C         -0.006  0.000  0.002    0.006 -0.000 -0.003    0.045  0.000 -0.019
 C          0.002 -0.000 -0.009   -0.012 -0.000  0.045    0.003 -0.000 -0.012
 C         -0.000  0.000 -0.000    0.001 -0.000  0.000    0.000 -0.001 -0.000
 C         -0.000  0.000  0.000    0.000 -0.000 -0.000   -0.001 -0.000  0.000
 C         -0.000 -0.000  0.000    0.000  0.000 -0.000   -0.000  0.000  0.000
 C         -0.000  0.000  0.000    0.000  0.000 -0.000   -0.000 -0.000  0.000
 C          0.000  0.000  0.000   -0.000 -0.000  0.000    0.000 -0.000 -0.000
 C          0.000 -0.000 -0.000   -0.000 -0.000 -0.000    0.000  0.000 -0.000
 H         -0.029 -0.223  0.152   -0.043 -0.336  0.230   -0.002 -0.013  0.009
 H         -0.182 -0.001 -0.195   -0.276 -0.001 -0.296   -0.011 -0.000 -0.012
 H          0.224  0.004 -0.098    0.342  0.005 -0.150    0.017 -0.001 -0.008
 H         -0.054  0.426  0.290    0.013 -0.106 -0.072   -0.005  0.041  0.028
 H         -0.352  0.001 -0.376    0.094 -0.001  0.100   -0.035  0.000 -0.037
 H          0.434 -0.008 -0.190   -0.115  0.002  0.050    0.047  0.000 -0.021
 H          0.007 -0.056 -0.039   -0.009  0.065  0.045   -0.063  0.458  0.317
 H          0.006  0.054 -0.037   -0.008 -0.059  0.041   -0.064 -0.458  0.318
 H          0.049 -0.000  0.053   -0.050  0.000 -0.053   -0.392 -0.000 -0.414
 H         -0.013 -0.081  0.056    0.066  0.394 -0.267   -0.017 -0.105  0.071
 H         -0.013  0.082  0.056    0.065 -0.391 -0.264   -0.018  0.108  0.073
 H          0.003 -0.005 -0.002   -0.003  0.006  0.003    0.001 -0.001 -0.001
 H          0.001  0.002 -0.001    0.000  0.001  0.001    0.003  0.007 -0.002
 H         -0.000  0.001  0.000    0.001 -0.002 -0.000    0.000  0.000 -0.000
 H         -0.001  0.000  0.000    0.002 -0.000 -0.001   -0.001 -0.000  0.000
 H         -0.000 -0.000  0.000    0.000  0.001 -0.000    0.001  0.002 -0.000
 TransDip   0.022 -0.028  0.045   -0.045  0.060  0.083    0.104 -0.005 -0.049

 Mode:                64                     65                     66
 Frequency:      3119.07                3150.96                3151.35
 Force Cnst:      6.3163                 6.4346                 6.4354
 Red. Mass:       1.1019                 1.1000                 1.0998
 IR Active:          YES                    YES                    YES
 IR Intens:        6.838                  2.106                 11.508
 Raman Active:       YES                    YES                    YES
               X      Y      Z        X      Y      Z        X      Y      Z
 C         -0.000  0.000 -0.000    0.028 -0.031  0.050   -0.023  0.031 -0.049
 Si        -0.000 -0.001 -0.000    0.000 -0.000  0.000   -0.000 -0.000 -0.001
 C          0.000  0.000  0.000   -0.027 -0.031 -0.049   -0.023 -0.031 -0.050
 C         -0.000  0.003 -0.000   -0.000  0.008 -0.000    0.009  0.000  0.021
 C          0.000 -0.092 -0.000    0.000  0.000  0.000    0.000 -0.000 -0.000
 C          0.000 -0.002  0.000    0.000  0.001 -0.000    0.000  0.000 -0.000
 C         -0.001  0.002  0.001   -0.001  0.002  0.000   -0.001  0.001  0.000
 C          0.001  0.001 -0.001    0.001  0.002 -0.001   -0.001 -0.001  0.000
 C         -0.000 -0.000 -0.000    0.000 -0.000 -0.000   -0.000  0.000  0.000
 C          0.000  0.000 -0.000   -0.000 -0.000  0.000    0.000  0.000 -0.000
 C         -0.000 -0.000  0.000    0.000 -0.000 -0.000   -0.000 -0.000  0.000
 H         -0.000  0.000  0.001    0.057  0.401 -0.253   -0.055 -0.397  0.250
 H          0.002  0.001  0.002   -0.351 -0.021 -0.379    0.328  0.021  0.353
 H          0.000 -0.000  0.000   -0.037 -0.007  0.031   -0.001  0.007 -0.014
 H          0.000 -0.003 -0.003   -0.056  0.395  0.248   -0.055  0.404  0.254
 H         -0.002  0.000 -0.001    0.347 -0.020  0.374    0.333 -0.021  0.358
 H          0.000  0.000  0.000    0.038 -0.006 -0.032   -0.002 -0.007 -0.014
 H          0.002 -0.019 -0.014    0.008 -0.049 -0.036    0.017 -0.088 -0.056
 H         -0.002 -0.018  0.013   -0.009 -0.052  0.038    0.017  0.086 -0.055
 H          0.003  0.002  0.004    0.002  0.002  0.002   -0.145 -0.000 -0.144
 H          0.095  0.560 -0.412   -0.001  0.000 -0.001   -0.000 -0.002  0.002
 H         -0.095  0.563  0.414    0.001  0.000  0.000   -0.001  0.004  0.004
 H          0.011 -0.018 -0.006    0.013 -0.025 -0.006    0.009 -0.017 -0.004
 H         -0.009 -0.014  0.006   -0.016 -0.029  0.007    0.007  0.014 -0.003
 H         -0.004  0.007  0.002   -0.002  0.005  0.001    0.001 -0.001 -0.000
 H         -0.004  0.000  0.002    0.000  0.000 -0.000   -0.001 -0.000  0.001
 H          0.004  0.007 -0.002   -0.000 -0.001  0.000    0.001  0.003 -0.001
 TransDip   0.000 -0.084 -0.000    0.001 -0.046  0.000   -0.061 -0.001 -0.090

 Mode:                67                     68                     69
 Frequency:      3154.73                3156.21                3158.03
 Force Cnst:      6.4492                 6.4576                 6.4652
 Red. Mass:       1.0998                 1.1002                 1.1003
 IR Active:          YES                    YES                    YES
 IR Intens:       18.781                 12.217                  3.388
 Raman Active:       YES                    YES                    YES
               X      Y      Z        X      Y      Z        X      Y      Z
 C         -0.008  0.008 -0.012    0.002 -0.003  0.005   -0.059 -0.021  0.020
 Si        -0.000 -0.000 -0.001    0.000 -0.001  0.000   -0.000 -0.000  0.000
 C         -0.007 -0.008 -0.012   -0.002 -0.003 -0.004    0.058 -0.021 -0.019
 C         -0.036 -0.001 -0.081    0.000 -0.091  0.001    0.000  0.001  0.000
 C          0.000  0.000 -0.000    0.000 -0.003 -0.000    0.000  0.000 -0.000
 C          0.000 -0.000 -0.000   -0.000  0.000  0.000    0.000  0.000 -0.000
 C         -0.000  0.000  0.000   -0.000  0.000  0.000    0.000 -0.000  0.000
 C         -0.001 -0.001  0.000    0.000  0.001 -0.000   -0.001 -0.000  0.000
 C         -0.000  0.000  0.000    0.000  0.000 -0.000    0.000 -0.000 -0.000
 C         -0.000  0.000  0.000    0.000 -0.000 -0.000   -0.000  0.000  0.000
 C          0.000  0.000 -0.000    0.000  0.000 -0.000    0.000  0.000 -0.000
 H         -0.014 -0.097  0.061    0.005  0.042 -0.025    0.020  0.263 -0.169
 H          0.092  0.006  0.101   -0.028 -0.002 -0.030    0.148  0.001  0.180
 H          0.014  0.001 -0.010    0.002 -0.001 -0.000    0.541 -0.011 -0.248
 H         -0.014  0.099  0.061   -0.005  0.040  0.024   -0.019  0.256  0.164
 H          0.091 -0.006  0.099    0.029 -0.002  0.031   -0.146  0.001 -0.177
 H          0.010 -0.001 -0.008    0.002 -0.000 -0.002   -0.530 -0.010  0.242
 H         -0.065  0.332  0.216   -0.099  0.558  0.408    0.001 -0.007 -0.005
 H         -0.064 -0.325  0.212    0.100  0.561 -0.412   -0.000 -0.005  0.003
 H          0.558  0.000  0.547   -0.003 -0.021 -0.003   -0.002 -0.000 -0.002
 H         -0.000 -0.005  0.004    0.002  0.017 -0.013   -0.001 -0.001  0.000
 H          0.000  0.002  0.002   -0.002  0.020  0.015    0.000  0.001  0.001
 H          0.002 -0.004 -0.001    0.002 -0.004 -0.001    0.000 -0.001 -0.000
 H          0.008  0.015 -0.004   -0.004 -0.007  0.002    0.004  0.007 -0.002
 H         -0.001  0.001  0.000    0.000 -0.001 -0.000   -0.001  0.003  0.001
 H         -0.000  0.000  0.000   -0.002  0.000  0.001    0.000  0.000 -0.000
 H         -0.001 -0.003  0.001   -0.002 -0.003  0.001   -0.004 -0.007  0.002
 TransDip  -0.069 -0.001 -0.120    0.000 -0.112  0.000   -0.001 -0.059  0.001

 Mode:                70                     71                     72
 Frequency:      3158.93                3186.48                3188.19
 Force Cnst:      6.4665                 6.5001                 6.5172
 Red. Mass:       1.0999                 1.0865                 1.0882
 IR Active:          YES                    YES                    YES
 IR Intens:       17.820                  8.675                  4.694
 Raman Active:       YES                    YES                    YES
               X      Y      Z        X      Y      Z        X      Y      Z
 C         -0.059 -0.018  0.016   -0.001  0.000 -0.001    0.001 -0.002  0.002
 Si        -0.001 -0.000  0.000   -0.000 -0.000  0.000    0.000 -0.000  0.000
 C         -0.060  0.019  0.017   -0.001 -0.001 -0.001   -0.002 -0.001 -0.001
 C          0.001  0.000  0.002    0.000  0.000 -0.000    0.000 -0.000  0.001
 C         -0.000  0.000  0.000   -0.000 -0.001 -0.000   -0.000 -0.003 -0.000
 C         -0.001  0.000  0.000    0.003  0.001 -0.001   -0.001  0.003  0.000
 C         -0.000  0.001  0.000    0.028 -0.056 -0.014    0.019 -0.036 -0.009
 C          0.000  0.000 -0.000    0.015  0.030 -0.007   -0.029 -0.059  0.014
 C          0.000  0.000 -0.000    0.009 -0.019 -0.004   -0.012  0.027  0.005
 C         -0.000  0.000  0.000   -0.014 -0.000  0.007    0.006 -0.001 -0.003
 C         -0.000 -0.000  0.000    0.013  0.030 -0.006    0.004  0.011 -0.002
 H          0.017  0.229 -0.147   -0.001 -0.006  0.004    0.003  0.022 -0.014
 H          0.166  0.003  0.199    0.007  0.000  0.008   -0.015 -0.000 -0.015
 H          0.532 -0.012 -0.245    0.006  0.000 -0.003    0.002 -0.001  0.000
 H          0.017 -0.237 -0.152   -0.002  0.012  0.007   -0.003  0.010  0.006
 H          0.168 -0.003  0.201    0.011 -0.000  0.012    0.015 -0.000  0.017
 H          0.543  0.011 -0.250    0.008 -0.000 -0.005    0.013 -0.000 -0.007
 H          0.003 -0.013 -0.009   -0.000  0.001  0.001    0.001 -0.004 -0.003
 H          0.002  0.008 -0.006   -0.001 -0.003  0.002    0.002  0.007 -0.006
 H         -0.011  0.000 -0.012   -0.000 -0.000 -0.000   -0.004  0.000 -0.003
 H          0.000  0.001 -0.001   -0.001  0.002 -0.000    0.004  0.014 -0.011
 H          0.000 -0.003 -0.002   -0.004  0.010  0.009   -0.003  0.017  0.012
 H          0.007 -0.014 -0.003   -0.336  0.653  0.160   -0.216  0.416  0.102
 H         -0.005 -0.009  0.002   -0.178 -0.347  0.085    0.349  0.676 -0.166
 H          0.002 -0.004 -0.001   -0.115  0.224  0.051    0.159 -0.312 -0.071
 H          0.002  0.000 -0.001    0.178  0.000 -0.081   -0.074  0.000  0.033
 H          0.002  0.005 -0.001   -0.181 -0.353  0.080   -0.062 -0.123  0.027
 TransDip  -0.131  0.004  0.034    0.086 -0.017 -0.035   -0.024 -0.064  0.010

 Mode:                73                     74                     75
 Frequency:      3203.14                3211.72                3226.55
 Force Cnst:      6.5879                 6.6529                 6.7453
 Red. Mass:       1.0898                 1.0947                 1.0997
 IR Active:          YES                    YES                    YES
 IR Intens:        2.550                 25.043                 14.506
 Raman Active:       YES                    YES                    YES
               X      Y      Z        X      Y      Z        X      Y      Z
 C          0.001 -0.000  0.000   -0.000 -0.001  0.001   -0.000 -0.000 -0.000
 Si         0.000 -0.000 -0.000   -0.000 -0.000 -0.000    0.000 -0.000  0.000
 C         -0.000  0.001  0.001   -0.001 -0.000 -0.000    0.000 -0.001 -0.000
 C          0.000 -0.000  0.001   -0.000 -0.000  0.000   -0.000 -0.000 -0.000
 C          0.001 -0.000 -0.000    0.000 -0.000 -0.000    0.000 -0.001 -0.000
 C         -0.002  0.001  0.001   -0.000  0.002  0.000    0.001  0.000 -0.001
 C         -0.015  0.026  0.007    0.012 -0.018 -0.005    0.007 -0.010 -0.003
 C         -0.016 -0.028  0.008   -0.014 -0.021  0.006    0.006  0.009 -0.003
 C          0.017 -0.027 -0.008    0.028 -0.052 -0.013   -0.016  0.036  0.007
 C         -0.048 -0.000  0.022   -0.001  0.005  0.001   -0.062  0.000  0.028
 C          0.020  0.034 -0.009   -0.026 -0.047  0.011   -0.018 -0.038  0.008
 H          0.001  0.002 -0.002    0.001  0.007 -0.005   -0.001  0.000  0.001
 H         -0.005  0.000 -0.006   -0.005  0.000 -0.005    0.001 -0.000  0.002
 H         -0.004 -0.001  0.002    0.004 -0.000 -0.002   -0.000  0.001  0.000
 H          0.001 -0.009 -0.006   -0.001  0.003  0.001   -0.000  0.007  0.004
 H         -0.002  0.000 -0.001    0.006 -0.000  0.006   -0.000 -0.000 -0.001
 H          0.003  0.000 -0.001    0.003 -0.001 -0.002   -0.004 -0.000  0.002
 H          0.001 -0.002 -0.001   -0.000  0.000  0.000   -0.001  0.003  0.002
 H          0.001  0.003 -0.003    0.001  0.005 -0.004   -0.000 -0.000 -0.000
 H         -0.003  0.000 -0.003   -0.000  0.000  0.000    0.002 -0.000  0.002
 H          0.002  0.001 -0.002    0.000 -0.002  0.001   -0.001  0.000  0.000
 H          0.001  0.001 -0.000   -0.000  0.002  0.001   -0.001  0.004  0.003
 H          0.155 -0.298 -0.074   -0.109  0.206  0.052   -0.061  0.113  0.029
 H          0.163  0.315 -0.078    0.127  0.240 -0.060   -0.054 -0.100  0.025
 H         -0.173  0.327  0.076   -0.313  0.599  0.138    0.190 -0.372 -0.084
 H          0.560 -0.000 -0.255    0.016 -0.005 -0.007    0.688 -0.000 -0.312
 H         -0.215 -0.407  0.095    0.280  0.536 -0.124    0.204  0.398 -0.090
 TransDip  -0.043  0.007  0.027    0.000 -0.160  0.001   -0.115 -0.005  0.039

 STANDARD THERMODYNAMIC QUANTITIES AT   298.15 K  AND     1.00 ATM

   This Molecule has  0 Imaginary Frequencies
   Zero point vibrational energy:      144.099 kcal/mol

   Atom    1 Element C  Has Mass   12.00000
   Atom    2 Element Si Has Mass   27.97693
   Atom    3 Element C  Has Mass   12.00000
   Atom    4 Element C  Has Mass   12.00000
   Atom    5 Element C  Has Mass   12.00000
   Atom    6 Element C  Has Mass   12.00000
   Atom    7 Element C  Has Mass   12.00000
   Atom    8 Element C  Has Mass   12.00000
   Atom    9 Element C  Has Mass   12.00000
   Atom   10 Element C  Has Mass   12.00000
   Atom   11 Element C  Has Mass   12.00000
   Atom   12 Element H  Has Mass    1.00783
   Atom   13 Element H  Has Mass    1.00783
   Atom   14 Element H  Has Mass    1.00783
   Atom   15 Element H  Has Mass    1.00783
   Atom   16 Element H  Has Mass    1.00783
   Atom   17 Element H  Has Mass    1.00783
   Atom   18 Element H  Has Mass    1.00783
   Atom   19 Element H  Has Mass    1.00783
   Atom   20 Element H  Has Mass    1.00783
   Atom   21 Element H  Has Mass    1.00783
   Atom   22 Element H  Has Mass    1.00783
   Atom   23 Element H  Has Mass    1.00783
   Atom   24 Element H  Has Mass    1.00783
   Atom   25 Element H  Has Mass    1.00783
   Atom   26 Element H  Has Mass    1.00783
   Atom   27 Element H  Has Mass    1.00783
   Molecular Mass:   164.102210 amu
   Principal axes and moments of inertia in amu*Bohr^2:
                             1           2           3
    Eigenvalues --      957.50523  3250.80495  3508.19301
          X               0.99999    -0.00000    -0.00516
          Y               0.00000     1.00000    -0.00000
          Z               0.00516     0.00000     0.99999
   Rotational Symmetry Number is   1
   The Molecule is an Asymmetric Top
   Translational Enthalpy:        0.889 kcal/mol
   Rotational Enthalpy:           0.889 kcal/mol
   Vibrational Enthalpy:        150.988 kcal/mol
   gas constant (RT):             0.592 kcal/mol
   Translational Entropy:        41.194  cal/mol.K
   Rotational Entropy:           30.769  cal/mol.K
   Vibrational Entropy:          45.058  cal/mol.K

   Total Enthalpy:              153.358 kcal/mol
   Total Entropy:               117.021  cal/mol.K
Archival summary:
1\1\mm2.localdomain\FREQ\MP2\6-311+G**\i11016\xuedong\MonJun2222:00:572020MonJun2222:00:572020\0\\#,FREQ,MP2,6-311+G**,\\0,1\Si\C,1,1.87897\H,2,1.09482,1,110.945\H,2,1.09559,1,111.536,3,-120.321,0\H,2,1.09573,1,110.776,3,119.789,0\C,1,1.87898,2,109.39,3,-58.6933,0\H,6,1.09482,1,110.945,2,58.6976,0\H,6,1.09559,1,111.535,2,179.019,0\H,6,1.09573,1,110.777,2,-61.0909,0\C,1,1.88108,2,110.173,3,-179.944,0\H,10,1.09525,1,111.235,2,-179.704,0\H,10,1.09525,1,111.234,2,-59.5016,0\H,10,1.09542,1,111.054,2,60.3965,0\C,1,1.90128,2,109.004,3,60.4068,0\H,14,1.09768,1,108.863,2,178.612,0\H,14,1.09769,1,108.863,2,62.1698,0\C,14,1.5046,1,111.277,2,-59.6073,0\C,17,1.40628,14,120.931,1,-88.4968,0\H,18,1.08876,17,119.224,14,-3.56501,0\C,18,1.39959,17,121.091,14,176.95,0\H,20,1.08728,18,119.746,17,179.731,0\C,20,1.40024,18,120.155,17,-0.268475,0\H,22,1.08667,20,120.285,18,179.949,0\C,22,1.40025,20,119.425,18,0.689391,0\H,24,1.08728,22,120.098,20,179.31,0\C,24,1.39959,22,120.155,20,-0.688629,0\H,26,1.08876,24,119.683,22,179.752,0\\HF=-677.071599\MP2=-678.624273\\@

 Total job time:  68455.54s(wall), 143761.22s(cpu) 
 Mon Jun 22 22:00:57 2020

        *************************************************************
        *                                                           *
        *  Thank you very much for using Q-Chem.  Have a nice day.  *
        *                                                           *
        *************************************************************


