
Running Job 1 of 2 29.freq.M06.qcinp
qchem 29.freq.M06.qcinp_13282.0 /scratch/xuedong/qchem13282/ 1
/home/qwang/software/qchem5.1/exe/qcprog.exe_s 29.freq.M06.qcinp_13282.0 /scratch/xuedong/qchem13282/
Check license passed

                  Welcome to Q-Chem
     A Quantum Leap Into The Future Of Chemistry


 Q-Chem 5.1, Q-Chem, Inc., Pleasanton, CA (2018)

 Yihan Shao,  Zhengting Gan,  E. Epifanovsky,  A. T. B. Gilbert,  M. Wormit,  
 J. Kussmann,  A. W. Lange,  A. Behn,  Jia Deng,  Xintian Feng,  D. Ghosh,  
 M. Goldey,  P. R. Horn,  L. D. Jacobson,  I. Kaliman,  T. Kus,  A. Landau,  
 Jie Liu,  E. I. Proynov,  R. M. Richard,  R. P. Steele,  E. J. Sundstrom,  
 H. L. Woodcock III,  P. M. Zimmerman,  D. Zuev,  B. Albrecht,  E. Alguire,  
 S. A. Baeppler,  D. Barton,  Z. Benda,  Y. A. Bernard,  E. J. Berquist,  
 K. B. Bravaya,  H. Burton,  D. Casanova,  Chun-Min Chang,  Yunqing Chen,  
 A. Chien,  K. D. Closser,  M. P. Coons,  S. Coriani,  S. Dasgupta,  
 A. L. Dempwolff,  M. Diedenhofen,  Hainam Do,  R. G. Edgar,  Po-Tung Fang,  
 S. Faraji,  S. Fatehi,  Qingguo Feng,  K. D. Fenk,  J. Fosso-Tande,  
 Qinghui Ge,  A. Ghysels,  G. Gidofalvi,  J. Gomes,  J. Gonthier,  A. Gunina,  
 D. Hait,  M. W. D. Hanson-Heine,  P. H. P. Harbach,  A. W. Hauser,  
 J. E. Herr,  E. G. Hohenstein,  Z. C. Holden,  Kerwin Hui,  B. C. Huynh,  
 T.-C. Jagau,  Hyunjun Ji,  B. Kaduk,  K. Khistyaev,  Jaehoon Kim,  
 P. Klunzinger,  K. Koh,  D. Kosenkov,  L. Koulias,  T. Kowalczyk,  
 C. M. Krauter,  A. Kunitsa,  Ka Un Lao,  A. Laurent,  K. V. Lawler,  
 Joonho Lee,  D. Lefrancois,  S. Lehtola,  D. S. Levine,  Yi-Pei Li,  
 You-Sheng Lin,  Fenglai Liu,  E. Livshits,  A. Luenser,  P. Manohar,  
 E. Mansoor,  S. F. Manzer,  Shan-Ping Mao,  Yuezhi Mao,  N. Mardirossian,  
 A. V. Marenich,  T. Markovich,  L. A. Martinez-Martinez,  S. A. Maurer,  
 N. J. Mayhall,  S. C. McKenzie,  J.-M. Mewes,  A. F. Morrison,  
 J. W. Mullinax,  K. Nanda,  T. S. Nguyen-Beck,  R. Olivares-Amaya,  
 J. A. Parkhill,  T. M. Perrine,  F. Plasser,  P. Pokhilko,  S. Prager,  
 A. Prociuk,  E. Ramos,  D. R. Rehn,  F. Rob,  M. Schneider,  N. Sergueev,  
 S. M. Sharada,  S. Sharma,  D. W. Small,  T. Stauch,  T. Stein,  
 Yu-Chuan Su,  A. J. W. Thom,  A. Tkatchenko,  T. Tsuchimochi,  N. M. Tubman,  
 L. Vogt,  M. L. Vidal,  O. Vydrov,  M. A. Watson,  J. Wenzel,  
 M. de Wergifosse,  T. A. Wesolowski,  A. White,  J. Witte,  A. Yamada,  
 Jun Yang,  K. Yao,  S. Yeganeh,  S. R. Yost,  Zhi-Qiang You,  A. Zech,  
 Igor Ying Zhang,  Xing Zhang,  Yan Zhao,  Ying Zhu,  B. R. Brooks,  
 G. K. L. Chan,  C. J. Cramer,  M. S. Gordon,  W. J. Hehre,  A. Klamt,  
 M. W. Schmidt,  C. D. Sherrill,  D. G. Truhlar,  A. Aspuru-Guzik,  R. Baer,  
 A. T. Bell,  N. A. Besley,  Jeng-Da Chai,  R. A. DiStasio Jr.,  A. Dreuw,  
 B. D. Dunietz,  T. R. Furlani,  Chao-Ping Hsu,  Yousung Jung,  Jing Kong,  
 D. S. Lambrecht,  WanZhen Liang,  C. Ochsenfeld,  V. A. Rassolov,  
 L. V. Slipchenko,  J. E. Subotnik,  T. Van Voorhis,  J. M. Herbert,  
 A. I. Krylov,  P. M. W. Gill,  M. Head-Gordon

 Contributors to earlier versions of Q-Chem not listed above: 
 R. D. Adamson,  B. Austin,  J. Baker,  G. J. O. Beran,  K. Brandhorst,  
 S. T. Brown,  E. F. C. Byrd,  A. K. Chakraborty,  C.-L. Cheng,  
 Siu Hung Chien,  D. M. Chipman,  D. L. Crittenden,  H. Dachsel,  
 R. J. Doerksen,  A. D. Dutoi,  L. Fusti-Molnar,  W. A. Goddard III,  
 A. Golubeva-Zadorozhnaya,  S. R. Gwaltney,  G. Hawkins,  A. Heyden,  
 S. Hirata,  G. Kedziora,  F. J. Keil,  C. Kelley,  Jihan Kim,  R. A. King,  
 R. Z. Khaliullin,  P. P. Korambath,  W. Kurlancheek,  A. M. Lee,  M. S. Lee,  
 S. V. Levchenko,  Ching Yeh Lin,  D. Liotard,  R. C. Lochan,  I. Lotan,  
 P. E. Maslen,  N. Nair,  D. P. O'Neill,  D. Neuhauser,  E. Neuscamman,  
 C. M. Oana,  R. Olson,  B. Peters,  R. Peverati,  P. A. Pieniazek,  
 Y. M. Rhee,  J. Ritchie,  M. A. Rohrdanz,  E. Rosta,  N. J. Russ,  
 H. F. Schaefer III,  N. E. Schultz,  N. Shenvi,  A. C. Simmonett,  A. Sodt,  
 D. Stuck,  K. S. Thanthiriwatte,  V. Vanovschi,  Tao Wang,  A. Warshel,  
 C. F. Williams,  Q. Wu,  X. Xu,  W. Zhang

 Please cite Q-Chem as follows:
 Y. Shao et al., Mol. Phys. 113, 184-215 (2015)
 DOI: 10.1080/00268976.2014.952696

 Q-Chem 5.1.0 for Intel X86 EM64T Linux

 Parts of Q-Chem use Armadillo 8.300.2 (Tropical Shenanigans).
 http://arma.sourceforge.net/

 Q-Chem begins on Sat Jun 20 09:52:01 2020  

Host: 
0

     Scratch files written to /scratch/xuedong/qchem13282//
 May118 |scratch|qcdevops|jenkins|workspace|build_RNUM 6581   
Processing $rem in /home/qwang/software/qchem5.1/config/preferences.
 MEM_TOTAL  2000 

Checking the input file for inconsistencies... 	...done.

--------------------------------------------------------------
User input:
--------------------------------------------------------------
$molecule
0 1
C         0.4295801713   -0.0215619685   -0.0000311190
C         1.1547443622    1.1859607648   -0.0003839397
C         2.5502828813    1.1994483838   -0.0004051296
C         3.2586773753   -0.0046944844   -0.0000708851
C         2.5641322717   -1.2153672811    0.0002813043
C         1.1667544301   -1.2194854745    0.0003014760
Si       -1.4584203600    0.0036886515    0.0000202454
C        -2.1219304631   -1.7614164770    0.0001716602
C        -2.0628655764    0.9079876870    1.5424460007
C        -2.0629368790    0.9077447969   -1.5425193902
H         0.6240245354    2.1382557214   -0.0006535050
H         3.0858295185    2.1464579144   -0.0006825055
H         4.3463418204    0.0015285681   -0.0000880396
H         3.1102127964   -2.1563496754    0.0005406916
H         0.6460307859   -2.1754911018    0.0005754804
H        -3.2169397179   -1.7550402501    0.0001617821
H        -1.7965575488   -2.3170694680   -0.8846531042
H        -1.7965778045   -2.3169176842    0.8850991822
H        -3.1565920730    0.9544188375    1.5708349127
H        -1.7239540638    0.4010432316    2.4510541923
H        -1.6865698285    1.9352794051    1.5766557586
H        -3.1566667948    0.9540996559   -1.5708995213
H        -1.7240056347    0.4006979577   -2.4510629336
H        -1.6867148505    1.9350583642   -1.5768777106
$end

$rem
JOBTYPE  =  opt
METHOD  =  M06
BASIS  =  6-311G+(d,p)
SCF_MAX_CYCLES  =  200
GEOM_OPT_MAX_CYCLES  =  300
GEOM_OPT_TOL_DISPLACEMENT = 10
GEOM_OPT_TOL_ENERGY = 1
GEOM_OPT_TOL_GRADIENT = 1
$end
--------------------------------------------------------------
 ----------------------------------------------------------------
             Standard Nuclear Orientation (Angstroms)
    I     Atom           X                Y                Z
 ----------------------------------------------------------------
    1      C       0.4210290777    -0.0206377417    -0.0000168295
    2      C       1.1411115292     1.1899223116    -0.0000115773
    3      C       2.5365810317     1.2092753992     0.0000002338
    4      C       3.2500303966     0.0081205709     0.0000073308
    5      C       2.5605800021    -1.2054608227     0.0000011927
    6      C       1.1632318127    -1.2154522984    -0.0000090143
    7      Si     -1.4670609083    -0.0033228077     0.0000022409
    8      C      -2.1231462370    -1.7712011134    -0.0003614718
    9      C      -2.0753320461     0.8979895094     1.5426721038
   10      C      -2.0753415253     0.8986226600    -1.5422932325
   11      H       0.6063938031     2.1399782284    -0.0000218015
   12      H       3.0681425664     2.1585275593     0.0000029862
   13      H       4.3376590783     0.0189151311     0.0000146788
   14      H       3.1106107427    -2.1441397122     0.0000047725
   15      H       0.6465309516    -2.1736381720    -0.0000173830
   16      H      -3.2181726191    -1.7694273692    -0.0003924281
   17      H      -1.7954232917    -2.3252302504    -0.8853371946
   18      H      -1.7954790654    -2.3255812821     0.8844150627
   19      H      -3.1692445959     0.9398151461     1.5710513382
   20      H      -1.7343106959     0.3922159239     2.4511433796
   21      H      -1.7033581079     1.9268440012     1.5771814585
   22      H      -3.1692560547     0.9403881178    -1.5706830606
   23      H      -1.7342641988     0.3932629682    -2.4509736467
   24      H      -1.7034400463     1.9275181689    -1.5763519487
 ----------------------------------------------------------------
 Molecular Point Group                 C1    NOp =  1
 Largest Abelian Subgroup              C1    NOp =  1
 Nuclear Repulsion Energy =   585.1463555769 hartrees
 There are       41 alpha and       41 beta electrons
 Requested basis set is 6-311+G(d,p)
 There are 123 shells and 312 basis functions

 Total QAlloc Memory Limit   2000 MB
 Mega-Array Size       188 MB
 MEM_STATIC part       192 MB
 A cutoff of  1.0D-11 yielded   6321 shell pairs
 There are     42193 function pairs (     44896 Cartesian)
 
 -------------------------------------------------------
 OpenMP Integral Computing Module                       
 Release: version 1.0, May 2013, Q-Chem Inc. Pittsburgh 
 -------------------------------------------------------
 Integral Job Info:
 Integral job number is                      11
 Integral operator is                         1
 short-range coefficients                     0
 long-range coefficients              100000000
 Omega coefficients                           0
 if combine SR and LR in K                    0
 Integral screening is                        0
 Integral computing path is                   2
 max size of driver memory is            800000
 size of driver memory is                593474
 size of scratch memory is              4204008
 max col of scratch BK array               1296
 max len of scratch array in speh3          155
 max len of scratch index in speh4           18
 max int batch size is                      520
 min int batch size is                       52
 fixed nKL is                                52
 max L of basis functions is                  2
 order of int derivative is                   0
 number of shells is                        123
 number of basis is                         322
 number of cartesian basis is               322
 number of contracted shell pairs          6321
 number of primitive shell pairs          14401
 maxK2 (contraction) of shell pair           36
 max number of K2 of shell pair               1
 max number of CS2 of shell pair            946
 max number of PS2 of shell pair           1755
 mem total for path MDJ                  560892
 -------------------------------------------------------
 Smallest overlap matrix eigenvalue = 2.20E-06

 Q-Chem warning in module stvman/mkSTV.C, line 295:

 Overlap eigenvalue is smaller than square root of threshold


 Scale SEOQF with 1.000000e-01/1.000000e-01/1.000000e-01

 Standard Electronic Orientation quadrupole field applied
 Nucleus-field energy     =     0.0000000146 hartrees
 Guess from superposition of atomic densities
 Warning:  Energy on first SCF cycle will be non-variational
 SAD guess density has 82.000000 electrons

 -----------------------------------------------------------------------
  General SCF calculation program by
  Eric Jon Sundstrom, Paul Horn, Yuezhi Mao, Dmitri Zuev, Alec White,
  David Stuck, Shaama M.S., Shane Yost, Joonho Lee, David Small,
  Daniel Levine, Susi Lehtola, Hugh Burton, Evgeny Epifanovsky
 -----------------------------------------------------------------------
 Exchange:     0.2700 Hartree-Fock + 1.0000 M06
 Correlation:  1.0000 M06
 Using SG-3 standard quadrature grid
 using 4 threads for integral computing
 -------------------------------------------------------
 OpenMP Integral computing Module                
 Release: version 1.0, May 2013, Q-Chem Inc. Pittsburgh 
 -------------------------------------------------------
 -------------------------------------------------------
 OpenMP BLAS3 based DFT computing Module                
 Release: version 1.0, May 2013, Q-Chem Inc. Pittsburgh 
 -------------------------------------------------------
 A restricted SCF calculation will be
 performed using DIIS
 SCF converges when DIIS error is below 1.0e-08
 ---------------------------------------
  Cycle       Energy         DIIS error
 ---------------------------------------
    1    -642.7203286049      3.45e-02  
    2    -640.4346721033      4.50e-03  
    3    -640.3807822188      5.06e-03  
    4    -640.7068066624      3.22e-04  
    5    -640.7070502595      2.91e-04  
    6    -640.7081351894      8.04e-05  
    7    -640.7082137439      2.50e-05  
    8    -640.7082209289      7.52e-06  
    9    -640.7082215929      2.69e-06  
   10    -640.7082216785      7.51e-07  
   11    -640.7082216838      2.75e-07  
   12    -640.7082216846      6.73e-08  
   13    -640.7082216847      2.34e-08  
   14    -640.7082216847      1.19e-08  
   15    -640.7082216847      2.63e-09  Convergence criterion met
 ---------------------------------------
 SCF time:   CPU 314.94s  wall 79.00s 
 SCF   energy in the final basis set =     -640.7082216847
 Total energy in the final basis set =     -640.7082216847
 
 --------------------------------------------------------------
 
                    Orbital Energies (a.u.)
 --------------------------------------------------------------
 
 Alpha MOs
 -- Occupied --
-66.245 -10.244 -10.244 -10.244 -10.243 -10.242 -10.230 -10.212
-10.210 -10.210  -5.353  -3.672  -3.672  -3.672  -0.866  -0.760
 -0.758  -0.722  -0.692  -0.690  -0.614  -0.611  -0.535  -0.482
 -0.464  -0.455  -0.434  -0.430  -0.421  -0.417  -0.404  -0.401
 -0.394  -0.390  -0.380  -0.355  -0.317  -0.314  -0.308  -0.268
 -0.264
 -- Virtual --
 -0.037  -0.023  -0.022  -0.021  -0.015  -0.013  -0.004  -0.003
  0.009   0.023   0.023   0.024   0.025   0.041   0.048   0.055
  0.055   0.056   0.063   0.067   0.075   0.080   0.082   0.099
  0.099   0.101   0.102   0.109   0.114   0.121   0.122   0.127
  0.130   0.135   0.140   0.147   0.154   0.155   0.158   0.168
  0.170   0.177   0.178   0.186   0.191   0.191   0.197   0.198
  0.201   0.209   0.211   0.218   0.220   0.227   0.241   0.247
  0.260   0.268   0.271   0.288   0.293   0.306   0.316   0.317
  0.323   0.337   0.346   0.356   0.380   0.431   0.443   0.481
  0.486   0.499   0.502   0.508   0.515   0.516   0.520   0.523
  0.530   0.532   0.548   0.557   0.583   0.587   0.592   0.603
  0.611   0.613   0.626   0.638   0.647   0.651   0.657   0.667
  0.674   0.676   0.690   0.701   0.702   0.709   0.715   0.732
  0.745   0.762   0.762   0.773   0.802   0.808   0.815   0.823
  0.846   0.851   0.858   0.863   0.882   0.896   0.904   0.928
  0.937   0.981   0.995   1.017   1.021   1.043   1.064   1.068
  1.071   1.107   1.119   1.132   1.137   1.198   1.241   1.247
  1.248   1.266   1.335   1.456   1.458   1.458   1.469   1.481
  1.488   1.491   1.508   1.536   1.543   1.548   1.549   1.562
  1.572   1.580   1.602   1.606   1.614   1.624   1.628   1.631
  1.657   1.703   1.711   1.712   1.717   1.732   1.762   1.772
  1.775   1.786   1.795   1.800   1.811   1.833   1.855   1.902
  1.914   1.922   1.930   1.951   2.001   2.001   2.033   2.056
  2.063   2.068   2.077   2.110   2.159   2.175   2.176   2.223
  2.234   2.249   2.266   2.270   2.289   2.314   2.331   2.351
  2.387   2.388   2.418   2.419   2.457   2.472   2.475   2.479
  2.495   2.521   2.537   2.586   2.602   2.609   2.612   2.623
  2.641   2.645   2.663   2.680   2.687   2.691   2.724   2.734
  2.751   2.789   2.803   2.817   2.835   2.855   2.873   2.901
  2.940   2.953   3.085   3.097   3.144   3.231   3.269   3.296
  3.329   3.344   3.432   3.468   3.500   3.665   3.673   3.680
  3.706   3.718   3.725   3.747   3.904   3.973   4.085   4.104
  4.811   5.908  11.671  11.712  11.724  23.543  23.909  23.917
 23.923  23.942  23.963  24.030  24.059  24.154 141.323
 --------------------------------------------------------------
 
          Ground-State Mulliken Net Atomic Charges

     Atom                 Charge (a.u.)
  ----------------------------------------
      1 C                    -0.223692
      2 C                    -0.087314
      3 C                    -0.148546
      4 C                    -0.174440
      5 C                    -0.496971
      6 C                     0.196101
      7 Si                    0.642134
      8 C                    -0.692680
      9 C                    -0.660452
     10 C                    -0.660463
     11 H                     0.143352
     12 H                     0.157357
     13 H                     0.165846
     14 H                     0.157089
     15 H                     0.145905
     16 H                     0.178186
     17 H                     0.168352
     18 H                     0.168337
     19 H                     0.170112
     20 H                     0.178516
     21 H                     0.162324
     22 H                     0.170114
     23 H                     0.178519
     24 H                     0.162315
  ----------------------------------------
  Sum of atomic charges =    -0.000000

 -----------------------------------------------------------------
                    Cartesian Multipole Moments
 -----------------------------------------------------------------
    Charge (ESU x 10^10)
                -0.0000
    Dipole Moment (Debye)
         X      -0.0979      Y      -0.0434      Z       0.0000
       Tot       0.1071
    Quadrupole Moments (Debye-Ang)
        XX     -65.6732     XY       0.1608     YY     -66.6560
        XZ       0.0001     YZ      -0.0000     ZZ     -73.9786
    Octopole Moments (Debye-Ang^2)
       XXX      14.0084    XXY      -0.1668    XYY       9.2675
       YYY       3.1636    XXZ       0.0000    XYZ       0.0000
       YYZ       0.0023    XZZ      -6.0605    YZZ      -3.8612
       ZZZ      -0.0023
    Hexadecapole Moments (Debye-Ang^3)
      XXXX   -1741.9364   XXXY       0.3594   XXYY    -405.0489
      XYYY      -6.1725   YYYY    -589.5291   XXXZ       0.0016
      XXYZ       0.0000   XYYZ      -0.0044   YYYZ      -0.0000
      XXZZ    -403.9996   XYZZ       7.5428   YYZZ    -168.3866
      XZZZ       0.0042   YZZZ      -0.0003   ZZZZ    -358.0459
 -----------------------------------------------------------------
 Calculating analytic gradient of the SCF energy
 Gradient of SCF Energy
            1           2           3           4           5           6
    1  -0.0078469  -0.0036313   0.0040475   0.0077770   0.0035334  -0.0032461
    2   0.0002247   0.0061743   0.0057334   0.0004329  -0.0060055  -0.0064658
    3  -0.0000006   0.0000001  -0.0000001   0.0000002  -0.0000002   0.0000004
            7           8           9          10          11          12
    1   0.0022588  -0.0022655  -0.0015580  -0.0015573   0.0006277   0.0002172
    2   0.0003218  -0.0034134   0.0020144   0.0020152   0.0006392   0.0012121
    3   0.0000005  -0.0000012   0.0029934  -0.0029926  -0.0000003   0.0000000
           13          14          15          16          17          18
    1   0.0000412   0.0002667   0.0003206   0.0012812  -0.0002719  -0.0002716
    2  -0.0000253  -0.0012397  -0.0005551  -0.0003781   0.0001341   0.0001336
    3  -0.0000000   0.0000000  -0.0000000  -0.0000000   0.0003691  -0.0003689
           19          20          21          22          23          24
    1   0.0013638  -0.0003659  -0.0008591   0.0013638  -0.0003664  -0.0008589
    2   0.0000237   0.0003913  -0.0008917   0.0000239   0.0003919  -0.0008919
    3   0.0002625   0.0000089   0.0001941  -0.0002625  -0.0000083  -0.0001947
 Max gradient component =       7.847E-03
 RMS gradient           =       2.330E-03
 Gradient time:  CPU 82.47 s  wall 48.11 s
 Geometry Optimization Parameters
   NAtoms,    NIC,     NZ,  NCons,   NDum,   NFix, NCnnct, MaxDiis
       24     171       0       0       0       0       0       0


** GEOMETRY OPTIMIZATION IN DELOCALIZED INTERNAL COORDINATES **
   Searching for a Minimum

   Optimization Cycle:   1

                       Coordinates (Angstroms)
     ATOM                X               Y               Z
      1  C         0.4210290777   -0.0206377417   -0.0000168295
      2  C         1.1411115292    1.1899223116   -0.0000115773
      3  C         2.5365810317    1.2092753992    0.0000002338
      4  C         3.2500303966    0.0081205709    0.0000073308
      5  C         2.5605800021   -1.2054608227    0.0000011927
      6  C         1.1632318127   -1.2154522984   -0.0000090143
      7  Si       -1.4670609083   -0.0033228077    0.0000022409
      8  C        -2.1231462370   -1.7712011134   -0.0003614718
      9  C        -2.0753320461    0.8979895094    1.5426721038
     10  C        -2.0753415253    0.8986226600   -1.5422932325
     11  H         0.6063938031    2.1399782284   -0.0000218015
     12  H         3.0681425664    2.1585275593    0.0000029862
     13  H         4.3376590783    0.0189151311    0.0000146788
     14  H         3.1106107427   -2.1441397122    0.0000047725
     15  H         0.6465309516   -2.1736381720   -0.0000173830
     16  H        -3.2181726191   -1.7694273692   -0.0003924281
     17  H        -1.7954232917   -2.3252302504   -0.8853371946
     18  H        -1.7954790654   -2.3255812821    0.8844150627
     19  H        -3.1692445959    0.9398151461    1.5710513382
     20  H        -1.7343106959    0.3922159239    2.4511433796
     21  H        -1.7033581079    1.9268440012    1.5771814585
     22  H        -3.1692560547    0.9403881178   -1.5706830606
     23  H        -1.7342641988    0.3932629682   -2.4509736467
     24  H        -1.7034400463    1.9275181689   -1.5763519487
   Point Group: c1    Number of degrees of freedom:    66


   Energy is   -640.708221685


 Attempting to Generate Delocalized Internal Coordinates

 66 Hessian modes will be used to form the next step
  Hessian Eigenvalues:
     0.002637    0.002742    0.002742    0.002965    0.013674    0.021587
     0.022064    0.022185    0.022572    0.022836    0.022879    0.022882
     0.022922    0.047215    0.052485    0.053303    0.053536    0.054106
     0.054107    0.054464    0.054464    0.055252    0.149881    0.150744
     0.160000    0.160000    0.160000    0.160000    0.160000    0.160000
     0.160000    0.160000    0.160000    0.160000    0.160000    0.160000
     0.160000    0.160000    0.202420    0.202866    0.202866    0.203815
     0.220000    0.220000    0.234628    0.250000    0.342322    0.342322
     0.342380    0.342891    0.342891    0.343183    0.343183    0.343240
     0.343240    0.347899    0.349723    0.350497    0.350505    0.350819
     0.412900    0.414696    0.448304    0.454661    0.461530    0.462879

 Minimum Search - Taking Simple RFO Step
 Searching for Lamda that Minimizes Along All modes
 Value Taken    Lamda =  -0.00126525
 Step Taken.  Stepsize is  0.095172

                             Maximum     Tolerance    Cnvgd?
         Gradient           0.011263      0.000001      NO
         Displacement       0.060353      0.000010      NO
         Energy change     *********      0.000000      NO


 New Cartesian Coordinates Obtained by Inverse Iteration

 Displacement from previous Coordinates is:  0.199777
 ----------------------------------------------------------------
             Standard Nuclear Orientation (Angstroms)
    I     Atom           X                Y                Z
 ----------------------------------------------------------------
    1      C       0.4205454115    -0.0278379393    -0.0000176466
    2      C       1.1270878627     1.1784811226     0.0000511311
    3      C       2.5130577939     1.2054010988     0.0000650524
    4      C       3.2277266175     0.0152040897     0.0000075307
    5      C       2.5493586472    -1.1942183525    -0.0000614713
    6      C       1.1608522772    -1.2116749304    -0.0000725770
    7      Si     -1.4620691021    -0.0101289552    -0.0000009788
    8      C      -2.1208803653    -1.7664604802    -0.0003193290
    9      C      -2.0597500303     0.8937149865     1.5325635371
   10      C      -2.0597627455     0.8942761165    -1.5322300567
   11      H       0.5814927067     2.1219038817     0.0000964323
   12      H       3.0412465538     2.1545389488     0.0001192482
   13      H       4.3152203381     0.0318308576     0.0000157718
   14      H       3.1059765530    -2.1268889897    -0.0001084841
   15      H       0.6451159856    -2.1697966502    -0.0001320666
   16      H      -3.2178409628    -1.7577899547    -0.0003628793
   17      H      -1.7944998702    -2.3215029032    -0.8860140219
   18      H      -1.7945791896    -2.3217975284     0.8852188691
   19      H      -3.1549154226     0.9564814228     1.5538516127
   20      H      -1.7311046662     0.3771078817     2.4400343919
   21      H      -1.6640647276     1.9154200465     1.5702188208
   22      H      -3.1549325498     0.9569631491    -1.5535291162
   23      H      -1.7310458650     0.3780475222    -2.4398918505
   24      H      -1.6641636504     1.9160296855    -1.5694747304
 ----------------------------------------------------------------
 Molecular Point Group                 C1    NOp =  1
 Largest Abelian Subgroup              C1    NOp =  1
 Nuclear Repulsion Energy =   588.1633356138 hartrees
 There are       41 alpha and       41 beta electrons
 Applying Cartesian multipole field
    Component          Value
    ---------          -----
     (2,0,0)        1.00000E-11
     (0,2,0)        2.00000E-11
     (0,0,2)       -3.00000E-11
 Nucleus-field energy     =     0.0000000145 hartrees
 Requested basis set is 6-311+G(d,p)
 There are 123 shells and 312 basis functions
 A cutoff of  1.0D-11 yielded   6338 shell pairs
 There are     42324 function pairs (     45041 Cartesian)
 Smallest overlap matrix eigenvalue = 2.07E-06

 Q-Chem warning in module stvman/mkSTV.C, line 295:

 Overlap eigenvalue is smaller than square root of threshold

 Guess MOs from SCF MO coefficient file
 Reading MOs from coefficient file
 Reading MOs from coefficient file

 -----------------------------------------------------------------------
  General SCF calculation program by
  Eric Jon Sundstrom, Paul Horn, Yuezhi Mao, Dmitri Zuev, Alec White,
  David Stuck, Shaama M.S., Shane Yost, Joonho Lee, David Small,
  Daniel Levine, Susi Lehtola, Hugh Burton, Evgeny Epifanovsky
 -----------------------------------------------------------------------
 Exchange:     0.2700 Hartree-Fock + 1.0000 M06
 Correlation:  1.0000 M06
 Using SG-3 standard quadrature grid
 using 4 threads for integral computing
 -------------------------------------------------------
 OpenMP Integral computing Module                
 Release: version 1.0, May 2013, Q-Chem Inc. Pittsburgh 
 -------------------------------------------------------
 -------------------------------------------------------
 OpenMP BLAS3 based DFT computing Module                
 Release: version 1.0, May 2013, Q-Chem Inc. Pittsburgh 
 -------------------------------------------------------
 A restricted SCF calculation will be
 performed using DIIS
 SCF converges when DIIS error is below 1.0e-08
 ---------------------------------------
  Cycle       Energy         DIIS error
 ---------------------------------------
    1    -640.7450673684      4.46e-04  
    2    -640.7083517219      1.80e-04  
    3    -640.7084898332      1.63e-04  
    4    -640.7088260213      2.24e-05  
    5    -640.7088307357      1.21e-05  
    6    -640.7088326120      2.42e-06  
    7    -640.7088326893      6.50e-07  
    8    -640.7088326941      2.56e-07  
    9    -640.7088326948      1.05e-07  
   10    -640.7088326950      3.76e-08  
   11    -640.7088326950      8.33e-09  Convergence criterion met
 ---------------------------------------
 SCF time:   CPU 237.29s  wall 60.00s 
 SCF   energy in the final basis set =     -640.7088326950
 Total energy in the final basis set =     -640.7088326950
 
 --------------------------------------------------------------
 
                    Orbital Energies (a.u.)
 --------------------------------------------------------------
 
 Alpha MOs
 -- Occupied --
-66.242 -10.242 -10.241 -10.241 -10.240 -10.240 -10.226 -10.212
-10.209 -10.209  -5.350  -3.670  -3.670  -3.669  -0.870  -0.762
 -0.760  -0.723  -0.692  -0.690  -0.616  -0.612  -0.537  -0.481
 -0.467  -0.454  -0.435  -0.431  -0.422  -0.418  -0.405  -0.401
 -0.393  -0.390  -0.383  -0.355  -0.317  -0.315  -0.307  -0.269
 -0.265
 -- Virtual --
 -0.037  -0.023  -0.022  -0.019  -0.016  -0.012  -0.004  -0.003
  0.009   0.023   0.023   0.024   0.025   0.041   0.048   0.055
  0.055   0.056   0.062   0.067   0.075   0.080   0.083   0.098
  0.099   0.102   0.103   0.110   0.116   0.123   0.123   0.128
  0.130   0.136   0.140   0.147   0.155   0.156   0.159   0.169
  0.170   0.178   0.178   0.187   0.191   0.191   0.198   0.200
  0.202   0.210   0.212   0.218   0.221   0.227   0.242   0.249
  0.261   0.267   0.272   0.289   0.296   0.307   0.319   0.320
  0.327   0.339   0.347   0.361   0.382   0.432   0.444   0.480
  0.487   0.502   0.503   0.510   0.517   0.518   0.520   0.525
  0.530   0.533   0.550   0.557   0.586   0.587   0.592   0.604
  0.611   0.614   0.626   0.638   0.650   0.653   0.661   0.667
  0.673   0.678   0.692   0.703   0.704   0.710   0.714   0.733
  0.746   0.760   0.765   0.773   0.804   0.810   0.817   0.825
  0.849   0.859   0.861   0.866   0.886   0.899   0.909   0.929
  0.940   0.981   0.999   1.018   1.024   1.044   1.067   1.071
  1.074   1.111   1.124   1.137   1.140   1.203   1.244   1.251
  1.251   1.269   1.332   1.454   1.456   1.456   1.470   1.487
  1.493   1.496   1.512   1.545   1.548   1.552   1.553   1.564
  1.573   1.582   1.600   1.607   1.613   1.630   1.630   1.638
  1.661   1.708   1.713   1.714   1.719   1.733   1.764   1.777
  1.779   1.790   1.798   1.805   1.817   1.839   1.862   1.912
  1.922   1.926   1.935   1.955   2.006   2.008   2.035   2.058
  2.062   2.072   2.084   2.113   2.157   2.175   2.176   2.224
  2.236   2.250   2.270   2.280   2.297   2.330   2.342   2.362
  2.390   2.390   2.421   2.422   2.461   2.472   2.474   2.482
  2.495   2.529   2.537   2.588   2.609   2.614   2.623   2.626
  2.642   2.651   2.667   2.684   2.690   2.697   2.730   2.737
  2.763   2.792   2.819   2.820   2.842   2.860   2.891   2.905
  2.946   2.959   3.095   3.107   3.165   3.245   3.277   3.307
  3.348   3.359   3.447   3.482   3.528   3.663   3.671   3.679
  3.705   3.718   3.725   3.758   3.907   3.981   4.090   4.107
  4.829   5.919  11.679  11.719  11.733  23.540  23.920  23.927
 23.933  23.944  23.965  24.064  24.091  24.190 141.338
 --------------------------------------------------------------
 
          Ground-State Mulliken Net Atomic Charges

     Atom                 Charge (a.u.)
  ----------------------------------------
      1 C                    -0.241061
      2 C                    -0.065156
      3 C                    -0.153992
      4 C                    -0.166759
      5 C                    -0.513612
      6 C                     0.214451
      7 Si                    0.632587
      8 C                    -0.687741
      9 C                    -0.656214
     10 C                    -0.656226
     11 H                     0.140496
     12 H                     0.155829
     13 H                     0.164148
     14 H                     0.155407
     15 H                     0.144178
     16 H                     0.178189
     17 H                     0.168399
     18 H                     0.168393
     19 H                     0.169538
     20 H                     0.177942
     21 H                     0.161862
     22 H                     0.169539
     23 H                     0.177946
     24 H                     0.161856
  ----------------------------------------
  Sum of atomic charges =    -0.000000

 -----------------------------------------------------------------
                    Cartesian Multipole Moments
 -----------------------------------------------------------------
    Charge (ESU x 10^10)
                 0.0000
    Dipole Moment (Debye)
         X      -0.1008      Y      -0.0559      Z       0.0000
       Tot       0.1152
    Quadrupole Moments (Debye-Ang)
        XX     -65.7032     XY       0.1917     YY     -66.7276
        XZ       0.0001     YZ       0.0004     ZZ     -73.8505
    Octopole Moments (Debye-Ang^2)
       XXX      13.9260    XXY      -0.0298    XYY       9.2969
       YYY       3.3639    XXZ       0.0001    XYZ       0.0009
       YYZ       0.0021    XZZ      -5.4870    YZZ      -3.9090
       ZZZ      -0.0019
    Hexadecapole Moments (Debye-Ang^3)
      XXXX   -1723.2920   XXXY      -1.1679   XXYY    -401.5856
      XYYY      -7.0775   YYYY    -586.2562   XXXZ       0.0010
      XXYZ       0.0000   XYYZ      -0.0042   YYYZ      -0.0045
      XXZZ    -399.3383   XYZZ       7.4764   YYZZ    -166.8726
      XZZZ       0.0032   YZZZ      -0.0080   ZZZZ    -355.0546
 -----------------------------------------------------------------
 Calculating analytic gradient of the SCF energy
 Gradient of SCF Energy
            1           2           3           4           5           6
    1  -0.0000013   0.0003581  -0.0000375  -0.0004771  -0.0002914   0.0001216
    2   0.0006056  -0.0008708  -0.0008564   0.0001560   0.0006427   0.0004579
    3  -0.0000005  -0.0000003   0.0000001  -0.0000000   0.0000001   0.0000005
            7           8           9          10          11          12
    1   0.0008095  -0.0003499   0.0000539   0.0000544   0.0001309  -0.0002424
    2   0.0001048  -0.0004610   0.0000591   0.0000595  -0.0000825  -0.0000458
    3   0.0000004  -0.0000001   0.0002374  -0.0002371  -0.0000001   0.0000000
           13          14          15          16          17          18
    1  -0.0001384  -0.0001927   0.0001570   0.0000503   0.0000712   0.0000708
    2  -0.0000131   0.0000526   0.0001253   0.0000485   0.0001041   0.0001039
    3  -0.0000000  -0.0000000  -0.0000001   0.0000002  -0.0000349   0.0000347
           19          20          21          22          23          24
    1  -0.0000475   0.0000543  -0.0000801  -0.0000475   0.0000542  -0.0000804
    2  -0.0001691  -0.0000440   0.0001178  -0.0001690  -0.0000440   0.0001179
    3  -0.0001042  -0.0001076  -0.0000366   0.0001042   0.0001075   0.0000365
 Max gradient component =       8.708E-04
 RMS gradient           =       2.492E-04
 Gradient time:  CPU 82.91 s  wall 48.30 s
 Geometry Optimization Parameters
   NAtoms,    NIC,     NZ,  NCons,   NDum,   NFix, NCnnct, MaxDiis
       24     171       0       0       0       0       0       0

 Cartesian Hessian Update
 Hessian Updated using BFGS Update


** GEOMETRY OPTIMIZATION IN DELOCALIZED INTERNAL COORDINATES **
   Searching for a Minimum

   Optimization Cycle:   2

                       Coordinates (Angstroms)
     ATOM                X               Y               Z
      1  C         0.4205454115   -0.0278379393   -0.0000176466
      2  C         1.1270878627    1.1784811226    0.0000511311
      3  C         2.5130577939    1.2054010988    0.0000650524
      4  C         3.2277266175    0.0152040897    0.0000075307
      5  C         2.5493586472   -1.1942183525   -0.0000614713
      6  C         1.1608522772   -1.2116749304   -0.0000725770
      7  Si       -1.4620691021   -0.0101289552   -0.0000009788
      8  C        -2.1208803653   -1.7664604802   -0.0003193290
      9  C        -2.0597500303    0.8937149865    1.5325635371
     10  C        -2.0597627455    0.8942761165   -1.5322300567
     11  H         0.5814927067    2.1219038817    0.0000964323
     12  H         3.0412465538    2.1545389488    0.0001192482
     13  H         4.3152203381    0.0318308576    0.0000157718
     14  H         3.1059765530   -2.1268889897   -0.0001084841
     15  H         0.6451159856   -2.1697966502   -0.0001320666
     16  H        -3.2178409628   -1.7577899547   -0.0003628793
     17  H        -1.7944998702   -2.3215029032   -0.8860140219
     18  H        -1.7945791896   -2.3217975284    0.8852188691
     19  H        -3.1549154226    0.9564814228    1.5538516127
     20  H        -1.7311046662    0.3771078817    2.4400343919
     21  H        -1.6640647276    1.9154200465    1.5702188208
     22  H        -3.1549325498    0.9569631491   -1.5535291162
     23  H        -1.7310458650    0.3780475222   -2.4398918505
     24  H        -1.6641636504    1.9160296855   -1.5694747304
   Point Group: c1    Number of degrees of freedom:    66


   Energy is   -640.708832695

 Hessian Updated using BFGS Update

 53 Hessian modes will be used to form the next step
  Hessian Eigenvalues:
     0.002637    0.002704    0.002742    0.002965    0.013674    0.021587
     0.022064    0.022185    0.022572    0.022836    0.022882    0.022922
     0.047112    0.052485    0.052976    0.053306    0.054100    0.054106
     0.054406    0.054464    0.055252    0.149864    0.150744    0.158472
     0.160851    0.198825    0.202866    0.203388    0.205186    0.219969
     0.220067    0.233901    0.247590    0.342163    0.342322    0.342375
     0.342891    0.343022    0.343153    0.343183    0.343240    0.343247
     0.347926    0.349746    0.350500    0.350715    0.351004    0.413769
     0.414742    0.448311    0.459658    0.462122    0.506092

 Minimum Search - Taking Simple RFO Step
 Searching for Lamda that Minimizes Along All modes
 Value Taken    Lamda =  -0.00003700
 Step Taken.  Stepsize is  0.077223

                             Maximum     Tolerance    Cnvgd?
         Gradient           0.001588      0.000001      NO
         Displacement       0.065663      0.000010      NO
         Energy change     -0.000611      0.000000      NO


 New Cartesian Coordinates Obtained by Inverse Iteration

 Displacement from previous Coordinates is:  0.103485
 ----------------------------------------------------------------
             Standard Nuclear Orientation (Angstroms)
    I     Atom           X                Y                Z
 ----------------------------------------------------------------
    1      C       0.4204374517    -0.0316890738    -0.0000150572
    2      C       1.1233237127     1.1777729362     0.0001197969
    3      C       2.5096725513     1.2089143650     0.0001321468
    4      C       3.2276500732     0.0197987025     0.0000072553
    5      C       2.5530967063    -1.1924646767    -0.0001281324
    6      C       1.1639948980    -1.2142187468    -0.0001379420
    7      Si     -1.4635948168    -0.0137317202    -0.0000019955
    8      C      -2.1250982706    -1.7681892855    -0.0002780668
    9      C      -2.0579790880     0.8926966200     1.5320864306
   10      C      -2.0579914327     0.8931841649    -1.5317974022
   11      H       0.5740511748     2.1192870324     0.0002195959
   12      H       3.0364728920     2.1590473325     0.0002384855
   13      H       4.3152871151     0.0397445789     0.0000150470
   14      H       3.1137060036    -2.1229329142    -0.0002278601
   15      H       0.6502832736    -2.1737130518    -0.0002489836
   16      H      -3.2221531088    -1.7575671468    -0.0003270965
   17      H      -1.8003521229    -2.3245514027    -0.8857755999
   18      H      -1.8004378890    -2.3247970430     0.8850957847
   19      H      -3.1519224294     0.9754548907     1.5464881756
   20      H      -1.7449349830     0.3671809952     2.4400646874
   21      H      -1.6442648804     1.9068387908     1.5771730806
   22      H      -3.1519413385     0.9758561051    -1.5462096249
   23      H      -1.7448700758     0.3680048156    -2.4399448575
   24      H      -1.6443638167     1.9073778581    -1.5765206777
 ----------------------------------------------------------------
 Molecular Point Group                 C1    NOp =  1
 Largest Abelian Subgroup              C1    NOp =  1
 Nuclear Repulsion Energy =   588.0336478257 hartrees
 There are       41 alpha and       41 beta electrons
 Applying Cartesian multipole field
    Component          Value
    ---------          -----
     (2,0,0)        1.00000E-11
     (0,2,0)        2.00000E-11
     (0,0,2)       -3.00000E-11
 Nucleus-field energy     =     0.0000000145 hartrees
 Requested basis set is 6-311+G(d,p)
 There are 123 shells and 312 basis functions
 A cutoff of  1.0D-11 yielded   6337 shell pairs
 There are     42323 function pairs (     45040 Cartesian)
 Smallest overlap matrix eigenvalue = 2.09E-06

 Q-Chem warning in module stvman/mkSTV.C, line 295:

 Overlap eigenvalue is smaller than square root of threshold

 Guess MOs from SCF MO coefficient file
 Reading MOs from coefficient file
 Reading MOs from coefficient file

 -----------------------------------------------------------------------
  General SCF calculation program by
  Eric Jon Sundstrom, Paul Horn, Yuezhi Mao, Dmitri Zuev, Alec White,
  David Stuck, Shaama M.S., Shane Yost, Joonho Lee, David Small,
  Daniel Levine, Susi Lehtola, Hugh Burton, Evgeny Epifanovsky
 -----------------------------------------------------------------------
 Exchange:     0.2700 Hartree-Fock + 1.0000 M06
 Correlation:  1.0000 M06
 Using SG-3 standard quadrature grid
 using 4 threads for integral computing
 -------------------------------------------------------
 OpenMP Integral computing Module                
 Release: version 1.0, May 2013, Q-Chem Inc. Pittsburgh 
 -------------------------------------------------------
 -------------------------------------------------------
 OpenMP BLAS3 based DFT computing Module                
 Release: version 1.0, May 2013, Q-Chem Inc. Pittsburgh 
 -------------------------------------------------------
 A restricted SCF calculation will be
 performed using DIIS
 SCF converges when DIIS error is below 1.0e-08
 ---------------------------------------
  Cycle       Energy         DIIS error
 ---------------------------------------
    1    -640.7128950384      1.51e-04  
    2    -640.7088351983      4.19e-05  
    3    -640.7088350539      4.35e-05  
    4    -640.7088592607      6.50e-06  
    5    -640.7088596806      3.13e-06  
    6    -640.7088598071      7.09e-07  
    7    -640.7088598137      2.13e-07  
    8    -640.7088598143      4.65e-08  
    9    -640.7088598143      2.06e-08  
   10    -640.7088598143      7.26e-09  Convergence criterion met
 ---------------------------------------
 SCF time:   CPU 214.65s  wall 54.00s 
 SCF   energy in the final basis set =     -640.7088598143
 Total energy in the final basis set =     -640.7088598143
 
 --------------------------------------------------------------
 
                    Orbital Energies (a.u.)
 --------------------------------------------------------------
 
 Alpha MOs
 -- Occupied --
-66.242 -10.242 -10.242 -10.241 -10.240 -10.240 -10.226 -10.212
-10.209 -10.209  -5.350  -3.670  -3.670  -3.670  -0.870  -0.762
 -0.760  -0.724  -0.693  -0.690  -0.616  -0.611  -0.537  -0.481
 -0.467  -0.454  -0.435  -0.431  -0.422  -0.418  -0.405  -0.401
 -0.393  -0.390  -0.382  -0.355  -0.317  -0.315  -0.306  -0.269
 -0.264
 -- Virtual --
 -0.037  -0.024  -0.022  -0.019  -0.016  -0.012  -0.004  -0.003
  0.009   0.023   0.023   0.024   0.025   0.041   0.048   0.055
  0.055   0.056   0.062   0.067   0.075   0.080   0.083   0.098
  0.099   0.102   0.103   0.110   0.116   0.123   0.123   0.127
  0.131   0.137   0.140   0.147   0.155   0.156   0.159   0.169
  0.170   0.178   0.178   0.187   0.191   0.191   0.198   0.200
  0.202   0.210   0.212   0.218   0.220   0.227   0.242   0.248
  0.262   0.267   0.273   0.289   0.296   0.307   0.319   0.320
  0.327   0.338   0.347   0.361   0.382   0.432   0.444   0.480
  0.486   0.502   0.502   0.511   0.517   0.518   0.520   0.525
  0.530   0.532   0.550   0.557   0.585   0.587   0.592   0.604
  0.611   0.614   0.626   0.638   0.650   0.652   0.661   0.667
  0.673   0.678   0.692   0.703   0.704   0.710   0.713   0.734
  0.746   0.760   0.764   0.773   0.804   0.810   0.817   0.825
  0.849   0.860   0.861   0.866   0.887   0.899   0.910   0.928
  0.940   0.981   0.999   1.017   1.024   1.044   1.067   1.071
  1.073   1.111   1.123   1.137   1.140   1.204   1.244   1.250
  1.251   1.269   1.332   1.454   1.456   1.456   1.470   1.487
  1.494   1.496   1.512   1.545   1.548   1.552   1.553   1.564
  1.573   1.581   1.599   1.608   1.612   1.630   1.630   1.638
  1.660   1.706   1.713   1.714   1.719   1.733   1.763   1.776
  1.778   1.790   1.798   1.805   1.817   1.839   1.861   1.911
  1.921   1.925   1.935   1.954   2.006   2.007   2.035   2.057
  2.062   2.071   2.084   2.113   2.157   2.174   2.176   2.224
  2.237   2.250   2.270   2.279   2.296   2.329   2.342   2.362
  2.389   2.390   2.422   2.423   2.461   2.472   2.474   2.483
  2.495   2.529   2.537   2.588   2.608   2.614   2.623   2.627
  2.642   2.650   2.667   2.684   2.690   2.696   2.731   2.736
  2.761   2.792   2.818   2.820   2.843   2.859   2.890   2.904
  2.946   2.959   3.094   3.107   3.163   3.244   3.277   3.307
  3.347   3.358   3.446   3.481   3.526   3.663   3.671   3.679
  3.705   3.719   3.725   3.757   3.907   3.980   4.089   4.107
  4.828   5.918  11.679  11.719  11.733  23.540  23.920  23.926
 23.932  23.944  23.965  24.061  24.089  24.187 141.337
 --------------------------------------------------------------
 
          Ground-State Mulliken Net Atomic Charges

     Atom                 Charge (a.u.)
  ----------------------------------------
      1 C                    -0.237223
      2 C                    -0.069350
      3 C                    -0.153750
      4 C                    -0.166068
      5 C                    -0.514411
      6 C                     0.214543
      7 Si                    0.634903
      8 C                    -0.687833
      9 C                    -0.656749
     10 C                    -0.656760
     11 H                     0.140157
     12 H                     0.155958
     13 H                     0.164123
     14 H                     0.155500
     15 H                     0.144406
     16 H                     0.178199
     17 H                     0.168516
     18 H                     0.168517
     19 H                     0.169229
     20 H                     0.177627
     21 H                     0.161804
     22 H                     0.169230
     23 H                     0.177631
     24 H                     0.161802
  ----------------------------------------
  Sum of atomic charges =     0.000000

 -----------------------------------------------------------------
                    Cartesian Multipole Moments
 -----------------------------------------------------------------
    Charge (ESU x 10^10)
                 0.0000
    Dipole Moment (Debye)
         X      -0.1083      Y      -0.0589      Z       0.0000
       Tot       0.1233
    Quadrupole Moments (Debye-Ang)
        XX     -65.6935     XY       0.1997     YY     -66.7152
        XZ       0.0000     YZ       0.0008     ZZ     -73.8592
    Octopole Moments (Debye-Ang^2)
       XXX      13.9396    XXY       0.0764    XYY       9.2977
       YYY       3.3992    XXZ       0.0001    XYZ       0.0017
       YYZ       0.0018    XZZ      -5.5384    YZZ      -3.8735
       ZZZ      -0.0016
    Hexadecapole Moments (Debye-Ang^3)
      XXXX   -1723.7839   XXXY      -2.2859   XXYY    -401.5344
      XYYY      -7.5425   YYYY    -586.8789   XXXZ       0.0007
      XXYZ      -0.0000   XYYZ      -0.0037   YYYZ      -0.0093
      XXZZ    -399.3991   XYZZ       7.2693   YYZZ    -166.8595
      XZZZ       0.0025   YZZZ      -0.0162   ZZZZ    -354.9300
 -----------------------------------------------------------------
 Calculating analytic gradient of the SCF energy
 Gradient of SCF Energy
            1           2           3           4           5           6
    1  -0.0000948   0.0001638   0.0000581  -0.0000873  -0.0000886  -0.0000217
    2   0.0004227  -0.0002669  -0.0002224   0.0000967   0.0001094  -0.0000376
    3  -0.0000005  -0.0000001   0.0000001  -0.0000000   0.0000001   0.0000003
            7           8           9          10          11          12
    1   0.0001997  -0.0001581   0.0000804   0.0000809  -0.0000231  -0.0000801
    2  -0.0000370  -0.0001254   0.0000083   0.0000087   0.0000267   0.0000280
    3   0.0000002   0.0000000   0.0000388  -0.0000386  -0.0000000  -0.0000000
           13          14          15          16          17          18
    1  -0.0000101  -0.0000370   0.0000678   0.0000032   0.0000358   0.0000354
    2  -0.0000030  -0.0000151  -0.0000010   0.0000338   0.0000365   0.0000363
    3  -0.0000000  -0.0000000  -0.0000002   0.0000002  -0.0000174   0.0000173
           19          20          21          22          23          24
    1  -0.0000660   0.0000413  -0.0000373  -0.0000659   0.0000413  -0.0000378
    2  -0.0001062  -0.0000289   0.0000857  -0.0001062  -0.0000290   0.0000858
    3  -0.0000574  -0.0000485  -0.0000138   0.0000574   0.0000484   0.0000137
 Max gradient component =       4.227E-04
 RMS gradient           =       8.840E-05
 Gradient time:  CPU 82.74 s  wall 47.96 s
 Geometry Optimization Parameters
   NAtoms,    NIC,     NZ,  NCons,   NDum,   NFix, NCnnct, MaxDiis
       24     171       0       0       0       0       0       0

 Cartesian Hessian Update
 Hessian Updated using BFGS Update


** GEOMETRY OPTIMIZATION IN DELOCALIZED INTERNAL COORDINATES **
   Searching for a Minimum

   Optimization Cycle:   3

                       Coordinates (Angstroms)
     ATOM                X               Y               Z
      1  C         0.4204374517   -0.0316890738   -0.0000150572
      2  C         1.1233237127    1.1777729362    0.0001197969
      3  C         2.5096725513    1.2089143650    0.0001321468
      4  C         3.2276500732    0.0197987025    0.0000072553
      5  C         2.5530967063   -1.1924646767   -0.0001281324
      6  C         1.1639948980   -1.2142187468   -0.0001379420
      7  Si       -1.4635948168   -0.0137317202   -0.0000019955
      8  C        -2.1250982706   -1.7681892855   -0.0002780668
      9  C        -2.0579790880    0.8926966200    1.5320864306
     10  C        -2.0579914327    0.8931841649   -1.5317974022
     11  H         0.5740511748    2.1192870324    0.0002195959
     12  H         3.0364728920    2.1590473325    0.0002384855
     13  H         4.3152871151    0.0397445789    0.0000150470
     14  H         3.1137060036   -2.1229329142   -0.0002278601
     15  H         0.6502832736   -2.1737130518   -0.0002489836
     16  H        -3.2221531088   -1.7575671468   -0.0003270965
     17  H        -1.8003521229   -2.3245514027   -0.8857755999
     18  H        -1.8004378890   -2.3247970430    0.8850957847
     19  H        -3.1519224294    0.9754548907    1.5464881756
     20  H        -1.7449349830    0.3671809952    2.4400646874
     21  H        -1.6442648804    1.9068387908    1.5771730806
     22  H        -3.1519413385    0.9758561051   -1.5462096249
     23  H        -1.7448700758    0.3680048156   -2.4399448575
     24  H        -1.6443638167    1.9073778581   -1.5765206777
   Point Group: c1    Number of degrees of freedom:    66


   Energy is   -640.708859814

 Hessian Updated using BFGS Update

 54 Hessian modes will be used to form the next step
  Hessian Eigenvalues:
     0.001560    0.002637    0.002742    0.002965    0.013674    0.021587
     0.022064    0.022185    0.022836    0.022879    0.022882    0.022922
     0.045865    0.051937    0.052485    0.053307    0.054100    0.054106
     0.054303    0.054464    0.055252    0.149520    0.150744    0.151966
     0.159969    0.160527    0.201331    0.202720    0.202866    0.204285
     0.219583    0.220041    0.230346    0.238079    0.342262    0.342290
     0.342322    0.342765    0.342891    0.343161    0.343183    0.343211
     0.343240    0.348252    0.349808    0.350497    0.350717    0.351847
     0.413734    0.415071    0.447706    0.460016    0.461834    0.539936

 Minimum Search - Taking Simple RFO Step
 Searching for Lamda that Minimizes Along All modes
 Value Taken    Lamda =  -0.00002144
 Step Taken.  Stepsize is  0.105155

                             Maximum     Tolerance    Cnvgd?
         Gradient           0.000468      0.000001      NO
         Displacement       0.090002      0.000010      NO
         Energy change     -0.000027      0.000000      NO


 New Cartesian Coordinates Obtained by Inverse Iteration

 Displacement from previous Coordinates is:  0.131887
 ----------------------------------------------------------------
             Standard Nuclear Orientation (Angstroms)
    I     Atom           X                Y                Z
 ----------------------------------------------------------------
    1      C       0.4198646017    -0.0357009246    -0.0000035746
    2      C       1.1186492121     1.1766216475     0.0001883645
    3      C       2.5049769158     1.2122858105     0.0001927052
    4      C       3.2265332367     0.0249338516     0.0000027576
    5      C       2.5561442677    -1.1897693747    -0.0001913008
    6      C       1.1668456514    -1.2160124222    -0.0001936256
    7      Si     -1.4650410117    -0.0173584028    -0.0000008437
    8      C      -2.1280453335    -1.7707115828    -0.0002411842
    9      C      -2.0560047805     0.8915890360     1.5321623791
   10      C      -2.0560052434     0.8920082175    -1.5319147821
   11      H       0.5660598566     2.1161162391     0.0003383871
   12      H       3.0299991197     2.1634569848     0.0003449228
   13      H       4.3141573288     0.0485007715     0.0000057691
   14      H       3.1205700034    -2.1179271317    -0.0003420939
   15      H       0.6552222688    -2.1767454564    -0.0003489545
   16      H      -3.2251458819    -1.7592884029    -0.0002807507
   17      H      -1.8044428471    -2.3280626821    -0.8855444014
   18      H      -1.8045069891    -2.3282739012     0.8849521926
   19      H      -3.1476087154     1.0005621625     1.5371475529
   20      H      -1.7641474237     0.3542612818     2.4403665937
   21      H      -1.6191228860     1.8952387903     1.5878819937
   22      H      -3.1476163858     1.0009119890    -1.5369070838
   23      H      -1.7640788275     0.3549651926    -2.4402661047
   24      H      -1.6191845371     1.8957024328    -1.5873217283
 ----------------------------------------------------------------
 Molecular Point Group                 C1    NOp =  1
 Largest Abelian Subgroup              C1    NOp =  1
 Nuclear Repulsion Energy =   587.9981780872 hartrees
 There are       41 alpha and       41 beta electrons
 Applying Cartesian multipole field
    Component          Value
    ---------          -----
     (2,0,0)        1.00000E-11
     (0,2,0)        2.00000E-11
     (0,0,2)       -3.00000E-11
 Nucleus-field energy     =     0.0000000145 hartrees
 Requested basis set is 6-311+G(d,p)
 There are 123 shells and 312 basis functions
 A cutoff of  1.0D-11 yielded   6341 shell pairs
 There are     42326 function pairs (     45041 Cartesian)
 Smallest overlap matrix eigenvalue = 2.10E-06

 Q-Chem warning in module stvman/mkSTV.C, line 295:

 Overlap eigenvalue is smaller than square root of threshold

 Guess MOs from SCF MO coefficient file
 Reading MOs from coefficient file
 Reading MOs from coefficient file

 -----------------------------------------------------------------------
  General SCF calculation program by
  Eric Jon Sundstrom, Paul Horn, Yuezhi Mao, Dmitri Zuev, Alec White,
  David Stuck, Shaama M.S., Shane Yost, Joonho Lee, David Small,
  Daniel Levine, Susi Lehtola, Hugh Burton, Evgeny Epifanovsky
 -----------------------------------------------------------------------
 Exchange:     0.2700 Hartree-Fock + 1.0000 M06
 Correlation:  1.0000 M06
 Using SG-3 standard quadrature grid
 using 4 threads for integral computing
 -------------------------------------------------------
 OpenMP Integral computing Module                
 Release: version 1.0, May 2013, Q-Chem Inc. Pittsburgh 
 -------------------------------------------------------
 -------------------------------------------------------
 OpenMP BLAS3 based DFT computing Module                
 Release: version 1.0, May 2013, Q-Chem Inc. Pittsburgh 
 -------------------------------------------------------
 A restricted SCF calculation will be
 performed using DIIS
 SCF converges when DIIS error is below 1.0e-08
 ---------------------------------------
  Cycle       Energy         DIIS error
 ---------------------------------------
    1    -640.7145730785      1.73e-04  
    2    -640.7088327769      5.13e-05  
    3    -640.7088334089      5.34e-05  
    4    -640.7088699921      7.59e-06  
    5    -640.7088705318      3.96e-06  
    6    -640.7088707355      8.75e-07  
    7    -640.7088707456      2.55e-07  
    8    -640.7088707464      5.48e-08  
    9    -640.7088707465      2.22e-08  
   10    -640.7088707465      9.02e-09  Convergence criterion met
 ---------------------------------------
 SCF time:   CPU 215.40s  wall 54.00s 
 SCF   energy in the final basis set =     -640.7088707465
 Total energy in the final basis set =     -640.7088707465
 
 --------------------------------------------------------------
 
                    Orbital Energies (a.u.)
 --------------------------------------------------------------
 
 Alpha MOs
 -- Occupied --
-66.242 -10.242 -10.242 -10.241 -10.240 -10.240 -10.226 -10.212
-10.209 -10.209  -5.350  -3.670  -3.670  -3.670  -0.870  -0.761
 -0.760  -0.723  -0.693  -0.690  -0.616  -0.611  -0.537  -0.481
 -0.467  -0.454  -0.435  -0.431  -0.422  -0.417  -0.405  -0.401
 -0.393  -0.390  -0.382  -0.355  -0.317  -0.315  -0.306  -0.269
 -0.264
 -- Virtual --
 -0.037  -0.024  -0.022  -0.019  -0.016  -0.012  -0.004  -0.003
  0.009   0.023   0.023   0.024   0.024   0.041   0.048   0.055
  0.055   0.057   0.062   0.066   0.075   0.080   0.083   0.097
  0.099   0.102   0.103   0.109   0.116   0.122   0.123   0.128
  0.131   0.137   0.140   0.147   0.155   0.156   0.159   0.169
  0.170   0.177   0.179   0.186   0.191   0.192   0.198   0.200
  0.201   0.210   0.212   0.218   0.220   0.227   0.242   0.248
  0.263   0.266   0.274   0.289   0.296   0.308   0.319   0.320
  0.327   0.338   0.347   0.362   0.381   0.432   0.445   0.480
  0.486   0.501   0.502   0.511   0.518   0.519   0.520   0.525
  0.530   0.531   0.551   0.557   0.584   0.587   0.591   0.604
  0.612   0.613   0.626   0.638   0.651   0.652   0.660   0.667
  0.673   0.677   0.691   0.703   0.704   0.711   0.712   0.735
  0.745   0.759   0.764   0.773   0.804   0.811   0.816   0.825
  0.849   0.860   0.860   0.865   0.887   0.900   0.910   0.928
  0.940   0.981   1.001   1.017   1.024   1.044   1.068   1.071
  1.073   1.111   1.123   1.137   1.140   1.204   1.243   1.250
  1.251   1.268   1.332   1.454   1.456   1.457   1.470   1.488
  1.494   1.496   1.512   1.545   1.548   1.551   1.552   1.565
  1.573   1.581   1.599   1.609   1.612   1.629   1.630   1.639
  1.659   1.705   1.714   1.714   1.720   1.733   1.763   1.775
  1.777   1.791   1.799   1.805   1.817   1.838   1.861   1.911
  1.921   1.925   1.935   1.954   2.006   2.007   2.035   2.058
  2.063   2.072   2.084   2.114   2.157   2.174   2.177   2.225
  2.237   2.251   2.270   2.279   2.296   2.329   2.343   2.362
  2.389   2.389   2.423   2.424   2.462   2.472   2.474   2.484
  2.495   2.530   2.536   2.587   2.607   2.615   2.624   2.627
  2.642   2.649   2.668   2.683   2.690   2.696   2.732   2.735
  2.761   2.792   2.817   2.820   2.845   2.859   2.889   2.904
  2.945   2.959   3.094   3.107   3.163   3.244   3.277   3.308
  3.346   3.358   3.446   3.480   3.526   3.664   3.672   3.679
  3.706   3.719   3.725   3.756   3.907   3.980   4.089   4.107
  4.828   5.918  11.679  11.718  11.733  23.540  23.920  23.926
 23.932  23.944  23.965  24.060  24.088  24.186 141.336
 --------------------------------------------------------------
 
          Ground-State Mulliken Net Atomic Charges

     Atom                 Charge (a.u.)
  ----------------------------------------
      1 C                    -0.235840
      2 C                    -0.074353
      3 C                    -0.153772
      4 C                    -0.164665
      5 C                    -0.516234
      6 C                     0.218748
      7 Si                    0.639240
      8 C                    -0.688169
      9 C                    -0.657744
     10 C                    -0.657749
     11 H                     0.139740
     12 H                     0.155998
     13 H                     0.164038
     14 H                     0.155529
     15 H                     0.144469
     16 H                     0.178260
     17 H                     0.168525
     18 H                     0.168530
     19 H                     0.168801
     20 H                     0.177167
     21 H                     0.161753
     22 H                     0.168801
     23 H                     0.177170
     24 H                     0.161755
  ----------------------------------------
  Sum of atomic charges =    -0.000000

 -----------------------------------------------------------------
                    Cartesian Multipole Moments
 -----------------------------------------------------------------
    Charge (ESU x 10^10)
                 0.0000
    Dipole Moment (Debye)
         X      -0.1144      Y      -0.0598      Z      -0.0000
       Tot       0.1291
    Quadrupole Moments (Debye-Ang)
        XX     -65.6837     XY       0.2032     YY     -66.7075
        XZ       0.0000     YZ       0.0012     ZZ     -73.8572
    Octopole Moments (Debye-Ang^2)
       XXX      14.0000    XXY       0.2090    XYY       9.2997
       YYY       3.4270    XXZ      -0.0001    XYZ       0.0024
       YYZ       0.0015    XZZ      -5.5706    YZZ      -3.8395
       ZZZ      -0.0016
    Hexadecapole Moments (Debye-Ang^3)
      XXXX   -1723.2663   XXXY      -3.5836   XXYY    -401.2373
      XYYY      -8.0419   YYYY    -587.5638   XXXZ       0.0007
      XXYZ      -0.0001   XYYZ      -0.0030   YYYZ      -0.0137
      XXZZ    -399.2150   XYZZ       7.0509   YYZZ    -166.8154
      XZZZ       0.0028   YZZZ      -0.0236   ZZZZ    -354.9412
 -----------------------------------------------------------------
 Calculating analytic gradient of the SCF energy
 Gradient of SCF Energy
            1           2           3           4           5           6
    1   0.0000590  -0.0000300   0.0000172   0.0000183   0.0000025  -0.0000288
    2   0.0000328   0.0000783   0.0000908   0.0000137  -0.0000781  -0.0000854
    3  -0.0000000   0.0000001   0.0000000   0.0000000  -0.0000000  -0.0000000
            7           8           9          10          11          12
    1  -0.0001436   0.0000532   0.0000425   0.0000427  -0.0000617   0.0000326
    2  -0.0000894   0.0000963   0.0000007   0.0000007  -0.0000031   0.0000032
    3  -0.0000001  -0.0000001  -0.0000541   0.0000542  -0.0000000  -0.0000000
           13          14          15          16          17          18
    1   0.0000240   0.0000477  -0.0000146  -0.0000087  -0.0000105  -0.0000106
    2   0.0000069   0.0000123  -0.0000113   0.0000207  -0.0000317  -0.0000317
    3   0.0000000  -0.0000000  -0.0000001  -0.0000001   0.0000119  -0.0000118
           19          20          21          22          23          24
    1  -0.0000232   0.0000041   0.0000038  -0.0000234   0.0000041   0.0000036
    2  -0.0000228   0.0000090   0.0000008  -0.0000229   0.0000091   0.0000009
    3   0.0000060   0.0000208   0.0000051  -0.0000060  -0.0000207  -0.0000052
 Max gradient component =       1.436E-04
 RMS gradient           =       3.722E-05
 Gradient time:  CPU 82.68 s  wall 48.01 s
 Geometry Optimization Parameters
   NAtoms,    NIC,     NZ,  NCons,   NDum,   NFix, NCnnct, MaxDiis
       24     171       0       0       0       0       0       0

 Cartesian Hessian Update
 Hessian Updated using BFGS Update


** GEOMETRY OPTIMIZATION IN DELOCALIZED INTERNAL COORDINATES **
   Searching for a Minimum

   Optimization Cycle:   4

                       Coordinates (Angstroms)
     ATOM                X               Y               Z
      1  C         0.4198646017   -0.0357009246   -0.0000035746
      2  C         1.1186492121    1.1766216475    0.0001883645
      3  C         2.5049769158    1.2122858105    0.0001927052
      4  C         3.2265332367    0.0249338516    0.0000027576
      5  C         2.5561442677   -1.1897693747   -0.0001913008
      6  C         1.1668456514   -1.2160124222   -0.0001936256
      7  Si       -1.4650410117   -0.0173584028   -0.0000008437
      8  C        -2.1280453335   -1.7707115828   -0.0002411842
      9  C        -2.0560047805    0.8915890360    1.5321623791
     10  C        -2.0560052434    0.8920082175   -1.5319147821
     11  H         0.5660598566    2.1161162391    0.0003383871
     12  H         3.0299991197    2.1634569848    0.0003449228
     13  H         4.3141573288    0.0485007715    0.0000057691
     14  H         3.1205700034   -2.1179271317   -0.0003420939
     15  H         0.6552222688   -2.1767454564   -0.0003489545
     16  H        -3.2251458819   -1.7592884029   -0.0002807507
     17  H        -1.8044428471   -2.3280626821   -0.8855444014
     18  H        -1.8045069891   -2.3282739012    0.8849521926
     19  H        -3.1476087154    1.0005621625    1.5371475529
     20  H        -1.7641474237    0.3542612818    2.4403665937
     21  H        -1.6191228860    1.8952387903    1.5878819937
     22  H        -3.1476163858    1.0009119890   -1.5369070838
     23  H        -1.7640788275    0.3549651926   -2.4402661047
     24  H        -1.6191845371    1.8957024328   -1.5873217283
   Point Group: c1    Number of degrees of freedom:    66


   Energy is   -640.708870746

 Hessian Updated using BFGS Update

 54 Hessian modes will be used to form the next step
  Hessian Eigenvalues:
     0.001388    0.002637    0.002742    0.002965    0.013674    0.021587
     0.022064    0.022572    0.022836    0.022882    0.022922    0.046167
     0.052485    0.053059    0.053421    0.054100    0.054106    0.054295
     0.054464    0.055252    0.150185    0.150744    0.154213    0.159853
     0.160136    0.161721    0.201568    0.202866    0.203277    0.204930
     0.219922    0.220481    0.234841    0.238530    0.342054    0.342291
     0.342322    0.342750    0.342891    0.343159    0.343183    0.343234
     0.343240    0.348212    0.349816    0.350496    0.350717    0.351868
     0.413673    0.415034    0.447604    0.460016    0.461797    0.548776

 Minimum Search - Taking Simple RFO Step
 Searching for Lamda that Minimizes Along All modes
 Value Taken    Lamda =   0.00000000
 Step Taken.  Stepsize is  0.012086

                             Maximum     Tolerance    Cnvgd?
         Gradient           0.000208      0.000001      NO
         Displacement       0.010310      0.000010      NO
         Energy change     -0.000011      0.000000      NO


 New Cartesian Coordinates Obtained by Inverse Iteration

 Displacement from previous Coordinates is:  0.013801
 ----------------------------------------------------------------
             Standard Nuclear Orientation (Angstroms)
    I     Atom           X                Y                Z
 ----------------------------------------------------------------
    1      C       0.4197127634    -0.0353218033    -0.0000002524
    2      C       1.1188133067     1.1768013320     0.0001825546
    3      C       2.5051013884     1.2121682917     0.0001842540
    4      C       3.2265268895     0.0247837053     0.0000001672
    5      C       2.5558570628    -1.1896896517    -0.0001846442
    6      C       1.1665980429    -1.2156116623    -0.0001838125
    7      Si     -1.4650920363    -0.0169931422     0.0000003826
    8      C      -2.1271100297    -1.7708799519    -0.0002457020
    9      C      -2.0565047810     0.8915735804     1.5323153869
   10      C      -2.0564973060     0.8920017424    -1.5320631962
   11      H       0.5667703097     2.1165812318     0.0003272185
   12      H       3.0301103677     2.1633323418     0.0003296837
   13      H       4.3141269458     0.0481782903     0.0000005975
   14      H       3.1198385037    -2.1180972784    -0.0003310226
   15      H       0.6548894719    -2.1762784164    -0.0003316900
   16      H      -3.2242053527    -1.7605742702    -0.0002760564
   17      H      -1.8029038051    -2.3278175303    -0.8855871495
   18      H      -1.8029531760    -2.3280399645     0.8849734285
   19      H      -3.1478593157     1.0027262741     1.5359917321
   20      H      -1.7668389153     0.3527590313     2.4403207692
   21      H      -1.6178210192     1.8943327406     1.5895625161
   22      H      -3.1478574710     1.0031002058    -1.5357442004
   23      H      -1.7667707786     0.3534696248    -2.4402177151
   24      H      -1.6178594662     1.8947994051    -1.5889960599
 ----------------------------------------------------------------
 Molecular Point Group                 C1    NOp =  1
 Largest Abelian Subgroup              C1    NOp =  1
 Nuclear Repulsion Energy =   588.0010623452 hartrees
 There are       41 alpha and       41 beta electrons
 Applying Cartesian multipole field
    Component          Value
    ---------          -----
     (2,0,0)        1.00000E-11
     (0,2,0)        2.00000E-11
     (0,0,2)       -3.00000E-11
 Nucleus-field energy     =     0.0000000145 hartrees
 Requested basis set is 6-311+G(d,p)
 There are 123 shells and 312 basis functions
 A cutoff of  1.0D-11 yielded   6340 shell pairs
 There are     42322 function pairs (     45037 Cartesian)
 Smallest overlap matrix eigenvalue = 2.10E-06

 Q-Chem warning in module stvman/mkSTV.C, line 295:

 Overlap eigenvalue is smaller than square root of threshold

 Guess MOs from SCF MO coefficient file
 Reading MOs from coefficient file
 Reading MOs from coefficient file

 -----------------------------------------------------------------------
  General SCF calculation program by
  Eric Jon Sundstrom, Paul Horn, Yuezhi Mao, Dmitri Zuev, Alec White,
  David Stuck, Shaama M.S., Shane Yost, Joonho Lee, David Small,
  Daniel Levine, Susi Lehtola, Hugh Burton, Evgeny Epifanovsky
 -----------------------------------------------------------------------
 Exchange:     0.2700 Hartree-Fock + 1.0000 M06
 Correlation:  1.0000 M06
 Using SG-3 standard quadrature grid
 using 4 threads for integral computing
 -------------------------------------------------------
 OpenMP Integral computing Module                
 Release: version 1.0, May 2013, Q-Chem Inc. Pittsburgh 
 -------------------------------------------------------
 -------------------------------------------------------
 OpenMP BLAS3 based DFT computing Module                
 Release: version 1.0, May 2013, Q-Chem Inc. Pittsburgh 
 -------------------------------------------------------
 A restricted SCF calculation will be
 performed using DIIS
 SCF converges when DIIS error is below 1.0e-08
 ---------------------------------------
  Cycle       Energy         DIIS error
 ---------------------------------------
    1    -640.7087201891      1.46e-05  
    2    -640.7088711392      2.75e-06  
    3    -640.7088711322      3.17e-06  
    4    -640.7088712608      4.97e-07  
    5    -640.7088712628      3.15e-07  
    6    -640.7088712641      5.64e-08  
    7    -640.7088712641      1.68e-08  
    8    -640.7088712641      4.94e-09  Convergence criterion met
 ---------------------------------------
 SCF time:   CPU 172.33s  wall 43.00s 
 SCF   energy in the final basis set =     -640.7088712641
 Total energy in the final basis set =     -640.7088712641
 
 --------------------------------------------------------------
 
                    Orbital Energies (a.u.)
 --------------------------------------------------------------
 
 Alpha MOs
 -- Occupied --
-66.242 -10.242 -10.242 -10.241 -10.240 -10.240 -10.226 -10.212
-10.209 -10.209  -5.350  -3.670  -3.670  -3.670  -0.870  -0.762
 -0.760  -0.723  -0.693  -0.690  -0.616  -0.611  -0.537  -0.481
 -0.467  -0.454  -0.435  -0.431  -0.422  -0.417  -0.405  -0.401
 -0.393  -0.390  -0.382  -0.355  -0.317  -0.315  -0.306  -0.269
 -0.264
 -- Virtual --
 -0.037  -0.024  -0.022  -0.019  -0.016  -0.012  -0.004  -0.003
  0.009   0.023   0.023   0.024   0.024   0.041   0.048   0.055
  0.055   0.057   0.062   0.066   0.075   0.080   0.083   0.097
  0.099   0.102   0.103   0.109   0.116   0.122   0.123   0.128
  0.131   0.137   0.140   0.147   0.155   0.156   0.158   0.169
  0.170   0.177   0.179   0.186   0.191   0.192   0.198   0.200
  0.201   0.210   0.212   0.218   0.220   0.227   0.242   0.248
  0.263   0.266   0.274   0.289   0.296   0.308   0.319   0.320
  0.327   0.338   0.347   0.362   0.381   0.432   0.445   0.480
  0.486   0.501   0.502   0.511   0.518   0.519   0.520   0.525
  0.531   0.531   0.551   0.557   0.584   0.587   0.591   0.604
  0.612   0.613   0.626   0.638   0.651   0.652   0.660   0.667
  0.673   0.677   0.691   0.703   0.704   0.711   0.712   0.735
  0.745   0.759   0.764   0.773   0.804   0.811   0.816   0.825
  0.849   0.859   0.860   0.865   0.887   0.900   0.910   0.928
  0.940   0.981   1.001   1.017   1.024   1.044   1.068   1.071
  1.073   1.111   1.123   1.137   1.140   1.204   1.243   1.250
  1.252   1.268   1.332   1.454   1.456   1.457   1.470   1.488
  1.494   1.496   1.512   1.545   1.548   1.551   1.552   1.565
  1.573   1.581   1.599   1.609   1.612   1.629   1.630   1.639
  1.659   1.705   1.714   1.714   1.720   1.733   1.762   1.775
  1.777   1.791   1.799   1.805   1.817   1.838   1.861   1.911
  1.921   1.925   1.935   1.954   2.006   2.008   2.035   2.058
  2.063   2.072   2.084   2.114   2.157   2.174   2.177   2.225
  2.236   2.250   2.270   2.279   2.296   2.329   2.343   2.362
  2.389   2.389   2.423   2.425   2.462   2.472   2.474   2.484
  2.495   2.530   2.536   2.587   2.607   2.615   2.624   2.627
  2.642   2.649   2.668   2.683   2.690   2.696   2.732   2.735
  2.761   2.792   2.817   2.820   2.845   2.859   2.890   2.904
  2.945   2.959   3.094   3.106   3.163   3.244   3.277   3.307
  3.346   3.358   3.446   3.480   3.526   3.664   3.672   3.679
  3.706   3.720   3.725   3.757   3.907   3.980   4.089   4.107
  4.828   5.918  11.679  11.717  11.733  23.540  23.920  23.926
 23.932  23.944  23.965  24.060  24.089  24.186 141.336
 --------------------------------------------------------------
 
          Ground-State Mulliken Net Atomic Charges

     Atom                 Charge (a.u.)
  ----------------------------------------
      1 C                    -0.236938
      2 C                    -0.075033
      3 C                    -0.153467
      4 C                    -0.164563
      5 C                    -0.516379
      6 C                     0.220142
      7 Si                    0.639800
      8 C                    -0.688159
      9 C                    -0.657815
     10 C                    -0.657818
     11 H                     0.139757
     12 H                     0.155982
     13 H                     0.164047
     14 H                     0.155530
     15 H                     0.144406
     16 H                     0.178314
     17 H                     0.168442
     18 H                     0.168445
     19 H                     0.168763
     20 H                     0.177101
     21 H                     0.161787
     22 H                     0.168764
     23 H                     0.177104
     24 H                     0.161788
  ----------------------------------------
  Sum of atomic charges =    -0.000000

 -----------------------------------------------------------------
                    Cartesian Multipole Moments
 -----------------------------------------------------------------
    Charge (ESU x 10^10)
                 0.0000
    Dipole Moment (Debye)
         X      -0.1134      Y      -0.0585      Z      -0.0000
       Tot       0.1276
    Quadrupole Moments (Debye-Ang)
        XX     -65.6839     XY       0.2000     YY     -66.7087
        XZ      -0.0000     YZ       0.0011     ZZ     -73.8564
    Octopole Moments (Debye-Ang^2)
       XXX      14.0126    XXY       0.2132    XYY       9.3039
       YYY       3.4175    XXZ      -0.0002    XYZ       0.0023
       YYZ       0.0015    XZZ      -5.5676    YZZ      -3.8465
       ZZZ      -0.0017
    Hexadecapole Moments (Debye-Ang^3)
      XXXX   -1723.2051   XXXY      -3.5780   XXYY    -401.2045
      XYYY      -8.0039   YYYY    -587.6100   XXXZ       0.0009
      XXYZ      -0.0001   XYYZ      -0.0029   YYYZ      -0.0131
      XXZZ    -399.2089   XYZZ       7.0693   YYZZ    -166.8077
      XZZZ       0.0035   YZZZ      -0.0225   ZZZZ    -354.9905
 -----------------------------------------------------------------
 Calculating analytic gradient of the SCF energy
 Gradient of SCF Energy
            1           2           3           4           5           6
    1   0.0000306  -0.0000263  -0.0000037   0.0000073   0.0000011   0.0000042
    2  -0.0000279   0.0000558   0.0000475   0.0000047  -0.0000316  -0.0000194
    3   0.0000001   0.0000000  -0.0000000  -0.0000000  -0.0000000  -0.0000000
            7           8           9          10          11          12
    1  -0.0000499   0.0000428   0.0000080   0.0000080  -0.0000156   0.0000140
    2  -0.0000323   0.0000376  -0.0000059  -0.0000060  -0.0000059   0.0000010
    3  -0.0000001  -0.0000000  -0.0000166   0.0000167  -0.0000000   0.0000000
           13          14          15          16          17          18
    1   0.0000071   0.0000221  -0.0000103  -0.0000060  -0.0000069  -0.0000069
    2   0.0000073   0.0000125  -0.0000006   0.0000132  -0.0000194  -0.0000194
    3   0.0000000  -0.0000000  -0.0000000  -0.0000001   0.0000086  -0.0000086
           19          20          21          22          23          24
    1  -0.0000055  -0.0000018  -0.0000023  -0.0000056  -0.0000018  -0.0000023
    2  -0.0000079   0.0000067  -0.0000045  -0.0000079   0.0000067  -0.0000044
    3   0.0000108   0.0000115  -0.0000019  -0.0000107  -0.0000114   0.0000019
 Max gradient component =       5.585E-05
 RMS gradient           =       1.673E-05
 Gradient time:  CPU 82.81 s  wall 48.33 s
 Geometry Optimization Parameters
   NAtoms,    NIC,     NZ,  NCons,   NDum,   NFix, NCnnct, MaxDiis
       24     171       0       0       0       0       0       0

 Cartesian Hessian Update
 Hessian Updated using BFGS Update


** GEOMETRY OPTIMIZATION IN DELOCALIZED INTERNAL COORDINATES **
   Searching for a Minimum

   Optimization Cycle:   5

                       Coordinates (Angstroms)
     ATOM                X               Y               Z
      1  C         0.4197127634   -0.0353218033   -0.0000002524
      2  C         1.1188133067    1.1768013320    0.0001825546
      3  C         2.5051013884    1.2121682917    0.0001842540
      4  C         3.2265268895    0.0247837053    0.0000001672
      5  C         2.5558570628   -1.1896896517   -0.0001846442
      6  C         1.1665980429   -1.2156116623   -0.0001838125
      7  Si       -1.4650920363   -0.0169931422    0.0000003826
      8  C        -2.1271100297   -1.7708799519   -0.0002457020
      9  C        -2.0565047810    0.8915735804    1.5323153869
     10  C        -2.0564973060    0.8920017424   -1.5320631962
     11  H         0.5667703097    2.1165812318    0.0003272185
     12  H         3.0301103677    2.1633323418    0.0003296837
     13  H         4.3141269458    0.0481782903    0.0000005975
     14  H         3.1198385037   -2.1180972784   -0.0003310226
     15  H         0.6548894719   -2.1762784164   -0.0003316900
     16  H        -3.2242053527   -1.7605742702   -0.0002760564
     17  H        -1.8029038051   -2.3278175303   -0.8855871495
     18  H        -1.8029531760   -2.3280399645    0.8849734285
     19  H        -3.1478593157    1.0027262741    1.5359917321
     20  H        -1.7668389153    0.3527590313    2.4403207692
     21  H        -1.6178210192    1.8943327406    1.5895625161
     22  H        -3.1478574710    1.0031002058   -1.5357442004
[...]
 C         -0.035 -0.011 -0.007   -0.013  0.018 -0.014   -0.018  0.001 -0.009
 C         -0.035 -0.011  0.007    0.013 -0.018 -0.014   -0.018  0.001  0.009
 H         -0.007  0.004 -0.000    0.000  0.000  0.010    0.002 -0.015  0.000
 H         -0.036  0.023 -0.000   -0.000  0.000 -0.001    0.054 -0.043  0.000
 H         -0.004  0.032  0.000    0.000  0.000  0.001    0.004 -0.076 -0.000
 H          0.013  0.015 -0.000    0.000  0.000  0.001   -0.040 -0.039  0.000
 H         -0.008  0.011  0.000    0.000 -0.000 -0.010    0.005 -0.019 -0.000
 H          0.020 -0.164  0.000   -0.000  0.000  0.567   -0.030  0.281 -0.000
 H         -0.202  0.167 -0.195    0.375  0.095  0.045    0.328 -0.293  0.330
 H         -0.202  0.167  0.195   -0.375 -0.095  0.045    0.328 -0.293 -0.330
 H         -0.025  0.004 -0.242   -0.040 -0.266  0.043   -0.026 -0.107 -0.097
 H          0.348  0.262  0.040   -0.050  0.131  0.074    0.137  0.182  0.054
 H          0.154 -0.108  0.299    0.260 -0.115  0.080    0.173 -0.095  0.181
 H         -0.025  0.005  0.242    0.040  0.265  0.042   -0.026 -0.107  0.097
 H          0.348  0.262 -0.040    0.049 -0.131  0.074    0.137  0.182 -0.054
 H          0.154 -0.108 -0.299   -0.260  0.114  0.080    0.173 -0.095 -0.181
 TransDip   0.031  0.038  0.000   -0.000 -0.000  0.089    0.090 -0.023 -0.000

 Mode:                49                     50                     51
 Frequency:      1447.92                1509.86                1619.81
 Force Cnst:      2.6624                 2.8838                 9.0796
 Red. Mass:       2.1554                 2.1470                 5.8734
 IR Active:          YES                    YES                    YES
 IR Intens:        9.924                  0.529                  0.276
 Raman Active:       YES                    YES                    YES
               X      Y      Z        X      Y      Z        X      Y      Z
 C         -0.002 -0.135 -0.000    0.127 -0.003 -0.000    0.016 -0.269  0.000
 C         -0.090  0.060  0.000   -0.088 -0.105 -0.000    0.105  0.180 -0.000
 C          0.160 -0.008  0.000   -0.094  0.110 -0.000    0.077 -0.221  0.000
 C          0.001 -0.102  0.000    0.099 -0.006  0.000   -0.006  0.404 -0.000
 C         -0.160 -0.009 -0.000   -0.097 -0.106  0.000   -0.064 -0.228  0.000
 C          0.097  0.055  0.000   -0.082  0.102  0.000   -0.130  0.188 -0.000
 Si        -0.002  0.005  0.000   -0.007 -0.000 -0.000   -0.001  0.005  0.000
 C         -0.012  0.005 -0.000    0.002 -0.000  0.000    0.005 -0.002 -0.000
 C         -0.002  0.001 -0.002   -0.002 -0.001 -0.000   -0.002 -0.000  0.000
 C         -0.002  0.001  0.002   -0.002 -0.001  0.000   -0.002 -0.000 -0.000
 H          0.078  0.180 -0.000    0.468  0.216  0.000   -0.306 -0.064 -0.000
 H         -0.349  0.298 -0.000    0.406 -0.159  0.000   -0.224 -0.077 -0.000
 H         -0.011  0.559  0.000    0.122  0.024  0.000    0.010 -0.472  0.000
 H          0.326  0.307 -0.000    0.409  0.191 -0.000    0.237 -0.072  0.000
 H         -0.123  0.195  0.000    0.434 -0.172 -0.000    0.336 -0.067 -0.000
 H         -0.007  0.113 -0.000    0.001 -0.018  0.000    0.004  0.012  0.000
 H          0.110 -0.091  0.103   -0.022  0.009 -0.014   -0.010 -0.000 -0.006
 H          0.110 -0.091 -0.103   -0.022  0.009  0.014   -0.010 -0.001  0.006
 H         -0.005 -0.028  0.013    0.000  0.015 -0.007   -0.002 -0.005  0.014
 H         -0.009  0.021  0.012    0.016  0.005 -0.002   -0.011 -0.001  0.002
 H          0.030 -0.015  0.011   -0.009  0.002  0.013    0.009 -0.005 -0.015
 H         -0.005 -0.028 -0.013    0.000  0.014  0.007   -0.002 -0.005 -0.014
 H         -0.008  0.021 -0.012    0.016  0.006  0.002   -0.011 -0.001 -0.002
 H          0.031 -0.015 -0.011   -0.009  0.002 -0.013    0.009 -0.005  0.014
 TransDip   0.015  0.100 -0.000    0.021  0.010  0.000    0.000  0.017 -0.000

 Mode:                52                     53                     54
 Frequency:      1645.64                3011.67                3012.55
 Force Cnst:      9.3914                 5.5328                 5.5360
 Red. Mass:       5.8859                 1.0353                 1.0353
 IR Active:          YES                    YES                    YES
 IR Intens:        1.024                  5.641                  7.299
 Raman Active:       YES                    YES                    YES
               X      Y      Z        X      Y      Z        X      Y      Z
 C          0.183  0.001  0.000   -0.000  0.000 -0.000   -0.000 -0.000  0.000
 C         -0.303 -0.086  0.000    0.000 -0.001 -0.000   -0.000  0.000 -0.000
 C          0.304 -0.076  0.000   -0.000 -0.000 -0.000   -0.000 -0.000  0.000
 C         -0.156 -0.014  0.000   -0.000 -0.000  0.000   -0.000  0.000  0.000
 C          0.296  0.098  0.000   -0.000  0.000 -0.000    0.000 -0.000 -0.000
 C         -0.293  0.072 -0.000    0.000  0.000  0.000    0.000  0.000  0.000
 Si        -0.008  0.000 -0.000    0.000 -0.000 -0.000   -0.000 -0.000 -0.001
 C          0.001  0.000  0.000   -0.008 -0.019  0.000    0.000  0.000  0.000
 C         -0.001  0.000 -0.000   -0.012  0.016  0.026   -0.013  0.017  0.028
 C         -0.001  0.000  0.000   -0.012  0.016 -0.025    0.013 -0.017  0.028
 H          0.270  0.271 -0.000   -0.004  0.009  0.000    0.000 -0.000 -0.001
 H         -0.256  0.255 -0.000    0.000  0.000  0.000    0.000  0.000  0.000
 H         -0.177  0.014 -0.000   -0.000 -0.000 -0.000    0.000 -0.000  0.000
 H         -0.257 -0.250  0.000    0.000 -0.001 -0.000   -0.000  0.000 -0.000
 H          0.248 -0.240  0.000   -0.001 -0.002 -0.000   -0.000 -0.000  0.000
 H          0.001  0.001  0.000    0.243 -0.009  0.000   -0.001  0.000  0.000
 H         -0.004 -0.001 -0.001   -0.074  0.117  0.192    0.001 -0.001 -0.002
 H         -0.004 -0.001  0.001   -0.074  0.117 -0.193   -0.000  0.000 -0.000
 H         -0.000  0.001 -0.005    0.388 -0.038  0.007    0.426 -0.041  0.009
 H          0.006  0.001 -0.001   -0.099  0.186 -0.292   -0.109  0.204 -0.320
 H         -0.000 -0.000  0.004   -0.154 -0.328 -0.011   -0.170 -0.362 -0.012
 H         -0.000  0.001  0.005    0.388 -0.037 -0.007   -0.426  0.041  0.009
 H          0.006  0.001  0.001   -0.099  0.185  0.292    0.109 -0.204 -0.320
 H         -0.000 -0.000 -0.004   -0.154 -0.328  0.011    0.170  0.362 -0.012
 TransDip  -0.032  0.002  0.000   -0.074  0.019  0.000    0.000  0.000  0.087

 Mode:                55                     56                     57
 Frequency:      3013.01                3100.72                3101.68
 Force Cnst:      5.5417                 6.2342                 6.2389
 Red. Mass:       1.0361                 1.1005                 1.1007
 IR Active:          YES                    YES                    YES
 IR Intens:        7.075                 10.994                  2.034
 Raman Active:       YES                    YES                    YES
               X      Y      Z        X      Y      Z        X      Y      Z
 C          0.000 -0.000  0.000    0.000  0.000 -0.000    0.000  0.000  0.000
 C         -0.000  0.000  0.000    0.001 -0.001 -0.000    0.000 -0.000 -0.000
 C          0.000 -0.000  0.000    0.000  0.000  0.000    0.000  0.000 -0.000
 C          0.000  0.000 -0.000   -0.000 -0.000 -0.000    0.000 -0.000  0.000
 C          0.000  0.000  0.000   -0.000  0.000 -0.000   -0.000  0.000  0.000
 C          0.000  0.000  0.000   -0.001 -0.002 -0.000   -0.000 -0.000 -0.000
 Si         0.000  0.001 -0.000   -0.001  0.000  0.000   -0.000  0.000 -0.000
 C         -0.018 -0.043 -0.000   -0.085  0.035  0.001   -0.000  0.000 -0.046
 C          0.005 -0.007 -0.011   -0.000  0.000 -0.000    0.050  0.025  0.006
 C          0.005 -0.007  0.012    0.000  0.000  0.000   -0.050 -0.025  0.006
 H          0.002 -0.003 -0.000   -0.005  0.009 -0.000   -0.000  0.000 -0.000
 H          0.000  0.000 -0.000   -0.001 -0.002 -0.000   -0.000 -0.000 -0.000
 H         -0.000  0.000  0.000    0.001 -0.000 -0.000   -0.000 -0.000  0.000
 H         -0.000  0.000 -0.000    0.003 -0.005  0.000    0.000 -0.000  0.000
 H         -0.001 -0.000 -0.000    0.014  0.023  0.000    0.000  0.000 -0.000
 H          0.531 -0.020  0.000    0.806 -0.001  0.000    0.004 -0.000 -0.010
 H         -0.163  0.255  0.424    0.109 -0.211 -0.342   -0.107  0.184  0.280
 H         -0.163  0.255 -0.424    0.106 -0.207  0.335    0.108 -0.187  0.284
 H         -0.176  0.017 -0.004    0.002 -0.001 -0.001   -0.433  0.054  0.002
 H          0.044 -0.084  0.132    0.001 -0.002  0.004   -0.004  0.034 -0.045
 H          0.071  0.150  0.004   -0.000 -0.001  0.000   -0.165 -0.383 -0.022
 H         -0.177  0.017  0.004   -0.001 -0.001  0.001    0.436 -0.055  0.002
 H          0.045 -0.085 -0.132    0.001 -0.002 -0.004    0.005 -0.034 -0.046
 H          0.071  0.151 -0.004   -0.002 -0.004  0.000    0.165  0.384 -0.022
 TransDip  -0.001 -0.085  0.000   -0.102  0.030  0.001   -0.001  0.000 -0.046

 Mode:                58                     59                     60
 Frequency:      3101.98                3102.03                3104.50
 Force Cnst:      6.2384                 6.2372                 6.2488
 Red. Mass:       1.1004                 1.1001                 1.1004
 IR Active:          YES                    YES                    YES
 IR Intens:       25.019                  7.858                  9.955
 Raman Active:       YES                    YES                    YES
               X      Y      Z        X      Y      Z        X      Y      Z
 C          0.000 -0.000  0.000    0.000 -0.000 -0.000   -0.000 -0.000  0.000
 C         -0.005  0.008 -0.000   -0.000  0.000  0.000   -0.004  0.006 -0.000
 C         -0.000 -0.001  0.000   -0.000 -0.000 -0.000   -0.000 -0.001 -0.000
 C          0.000  0.000 -0.000    0.000 -0.000 -0.000    0.000 -0.000  0.000
 C         -0.000  0.000 -0.000   -0.000  0.000  0.000   -0.000  0.000  0.000
 C          0.000  0.000 -0.000    0.000 -0.000  0.000    0.000  0.000  0.000
 Si        -0.001 -0.000  0.000   -0.000 -0.000 -0.001    0.000 -0.001 -0.000
 C         -0.000  0.000  0.001   -0.000  0.000 -0.079   -0.001  0.001 -0.000
 C         -0.057 -0.028 -0.006   -0.031 -0.013 -0.004    0.020 -0.046  0.035
 C         -0.058 -0.028  0.006    0.029  0.013 -0.004    0.022 -0.051 -0.039
 H          0.054 -0.091  0.000    0.000 -0.001 -0.000    0.044 -0.075 -0.000
 H          0.009  0.017 -0.000    0.000  0.000 -0.000    0.008  0.014 -0.000
 H         -0.001  0.000  0.000   -0.000  0.000 -0.000   -0.002  0.000  0.000
 H          0.000 -0.001  0.000    0.000 -0.000  0.000    0.001 -0.001 -0.000
 H         -0.003 -0.005  0.000    0.000  0.000 -0.001   -0.002 -0.003 -0.000
 H          0.002  0.002  0.000    0.003  0.000 -0.017    0.006 -0.001 -0.000
 H          0.003 -0.005 -0.007   -0.184  0.317  0.483    0.001 -0.001 -0.004
 H         -0.002  0.003 -0.005    0.185 -0.319  0.486    0.001 -0.002  0.005
 H          0.498 -0.063 -0.004    0.266 -0.033 -0.001   -0.227  0.016  0.009
 H          0.005 -0.036  0.049    0.007 -0.027  0.041   -0.143  0.270 -0.456
 H          0.190  0.441  0.026    0.094  0.219  0.012    0.128  0.266  0.025
 H          0.502 -0.063  0.004   -0.255  0.031 -0.001   -0.250  0.017 -0.009
 H          0.005 -0.037 -0.051   -0.006  0.025  0.039   -0.158  0.299  0.506
 H          0.191  0.443 -0.026   -0.090 -0.210  0.012    0.143  0.297 -0.028
 TransDip  -0.154 -0.043  0.001   -0.002 -0.000 -0.090    0.043 -0.091 -0.004

 Mode:                61                     62                     63
 Frequency:      3104.65                3117.29                3133.17
 Force Cnst:      6.2498                 6.2272                 6.2813
 Red. Mass:       1.1005                 1.0877                 1.0860
 IR Active:          YES                    YES                    YES
 IR Intens:        5.779                 12.546                  5.920
 Raman Active:       YES                    YES                    YES
               X      Y      Z        X      Y      Z        X      Y      Z
 C          0.000 -0.000  0.000    0.002  0.002  0.000   -0.002  0.001  0.000
 C          0.000 -0.000 -0.000    0.042 -0.070  0.000    0.003 -0.003  0.000
 C          0.000  0.000 -0.000    0.007  0.016  0.000   -0.003 -0.006 -0.000
 C         -0.000  0.000  0.000   -0.004  0.000 -0.000    0.015  0.000 -0.000
 C          0.000 -0.000  0.000    0.001 -0.002  0.000   -0.015  0.029  0.000
 C          0.000  0.000  0.000   -0.000  0.001 -0.000   -0.036 -0.067  0.000
 Si        -0.000  0.000 -0.001    0.000 -0.000  0.000   -0.000 -0.000  0.000
 C          0.000 -0.000  0.002    0.001 -0.000  0.000    0.002 -0.001  0.000
 C         -0.021  0.052 -0.039   -0.004 -0.007  0.002   -0.000 -0.000  0.000
 C          0.018 -0.047 -0.035   -0.004 -0.007 -0.002   -0.000 -0.000 -0.000
 H         -0.002  0.004 -0.000   -0.488  0.823 -0.000   -0.026  0.042 -0.000
 H         -0.000 -0.001 -0.000   -0.111 -0.203 -0.000    0.039  0.068  0.000
 H          0.000 -0.000  0.000    0.054  0.000  0.000   -0.184 -0.003 -0.000
 H         -0.000  0.000  0.000   -0.017  0.028  0.000    0.207 -0.345 -0.000
 H         -0.000 -0.000 -0.000   -0.004 -0.009  0.000    0.428  0.777 -0.000
 H         -0.000  0.000  0.000   -0.008 -0.000  0.000   -0.020  0.001  0.000
 H          0.005 -0.008 -0.013   -0.001  0.002  0.002   -0.003  0.006  0.009
 H         -0.006  0.008 -0.014   -0.001  0.002 -0.003   -0.003  0.006 -0.009
 H          0.238 -0.016 -0.008    0.028 -0.004  0.001    0.004 -0.000 -0.000
 H          0.158 -0.298  0.506   -0.011  0.019 -0.034   -0.001  0.001 -0.002
 H         -0.149 -0.309 -0.027    0.034  0.077  0.005    0.002  0.006  0.001
 H         -0.212  0.014 -0.008    0.028 -0.004 -0.001    0.003 -0.000  0.000
 H         -0.143  0.269  0.457   -0.011  0.019  0.034   -0.001  0.001  0.003
 H          0.135  0.281 -0.025    0.034  0.077 -0.005    0.002  0.006 -0.001
 TransDip  -0.002  0.005 -0.077    0.057 -0.098 -0.000   -0.039 -0.067 -0.000

 Mode:                64                     65                     66
 Frequency:      3145.35                3157.24                3167.30
 Force Cnst:      6.3435                 6.4233                 6.4952
 Red. Mass:       1.0883                 1.0937                 1.0989
 IR Active:          YES                    YES                    YES
 IR Intens:        1.563                 32.241                 21.962
 Raman Active:       YES                    YES                    YES
               X      Y      Z        X      Y      Z        X      Y      Z
 C         -0.001  0.000 -0.000   -0.000  0.002  0.000    0.000 -0.000 -0.000
 C         -0.008  0.012  0.000    0.009 -0.011  0.000    0.007 -0.008 -0.000
 C          0.021  0.033 -0.000   -0.031 -0.053  0.000   -0.021 -0.040  0.000
 C         -0.063 -0.001 -0.000   -0.006  0.004  0.000   -0.058 -0.001  0.000
 C          0.016 -0.021 -0.000    0.031 -0.049 -0.000   -0.024  0.044 -0.000
 C         -0.015 -0.026  0.000   -0.013 -0.019  0.000    0.009  0.013 -0.000
 Si        -0.000 -0.000 -0.000   -0.000 -0.000 -0.000    0.000 -0.000 -0.000
 C          0.001 -0.000 -0.000    0.000 -0.000 -0.000   -0.000  0.000 -0.000
 C          0.000  0.000 -0.000   -0.000 -0.000  0.000   -0.000 -0.000  0.000
 C          0.000  0.000  0.000   -0.000 -0.000 -0.000   -0.000 -0.000 -0.000
 H          0.080 -0.134  0.000   -0.074  0.119 -0.000   -0.053  0.085 -0.000
 H         -0.228 -0.397  0.000    0.341  0.601 -0.000    0.242  0.434 -0.000
 H          0.738  0.013  0.000    0.068 -0.004  0.000    0.638  0.011 -0.000
 H         -0.165  0.265 -0.000   -0.344  0.561 -0.000    0.283 -0.469 -0.000
 H          0.165  0.299 -0.000    0.118  0.210 -0.000   -0.082 -0.143 -0.000
 H         -0.005  0.000 -0.000   -0.003  0.000 -0.000    0.000 -0.000 -0.000
 H         -0.001  0.002  0.003   -0.000  0.001  0.001    0.000 -0.000 -0.000
 H         -0.001  0.002 -0.003   -0.000  0.001 -0.001    0.000 -0.000  0.000
 H         -0.001 -0.000 -0.000    0.001 -0.000 -0.000   -0.001  0.000  0.000
 H          0.000 -0.000  0.001   -0.000  0.001 -0.001    0.000 -0.000 -0.000
 H         -0.002 -0.004 -0.000    0.001  0.003  0.000    0.001  0.001 -0.000
 H         -0.001 -0.000  0.000    0.001 -0.000  0.000   -0.001  0.000 -0.000
 H          0.000 -0.000 -0.001   -0.000  0.001  0.001    0.000 -0.000  0.000
 H         -0.002 -0.004  0.000    0.001  0.003 -0.000    0.001  0.001  0.000
 TransDip  -0.040 -0.005  0.000   -0.006 -0.182 -0.000   -0.150  0.010  0.000

 STANDARD THERMODYNAMIC QUANTITIES AT   298.15 K  AND     1.00 ATM

   This Molecule has  0 Imaginary Frequencies
   Zero point vibrational energy:      125.024 kcal/mol

   Atom    1 Element C  Has Mass   12.00000
   Atom    2 Element C  Has Mass   12.00000
   Atom    3 Element C  Has Mass   12.00000
   Atom    4 Element C  Has Mass   12.00000
   Atom    5 Element C  Has Mass   12.00000
   Atom    6 Element C  Has Mass   12.00000
   Atom    7 Element Si Has Mass   27.97693
   Atom    8 Element C  Has Mass   12.00000
   Atom    9 Element C  Has Mass   12.00000
   Atom   10 Element C  Has Mass   12.00000
   Atom   11 Element H  Has Mass    1.00783
   Atom   12 Element H  Has Mass    1.00783
   Atom   13 Element H  Has Mass    1.00783
   Atom   14 Element H  Has Mass    1.00783
   Atom   15 Element H  Has Mass    1.00783
   Atom   16 Element H  Has Mass    1.00783
   Atom   17 Element H  Has Mass    1.00783
   Atom   18 Element H  Has Mass    1.00783
   Atom   19 Element H  Has Mass    1.00783
   Atom   20 Element H  Has Mass    1.00783
   Atom   21 Element H  Has Mass    1.00783
   Atom   22 Element H  Has Mass    1.00783
   Atom   23 Element H  Has Mass    1.00783
   Atom   24 Element H  Has Mass    1.00783
   Molecular Mass:   150.086550 amu
   Principal axes and moments of inertia in amu*Bohr^2:
                             1           2           3
    Eigenvalues --      884.09537  2479.94129  2794.24332
          X               1.00000     0.00021    -0.00000
          Y              -0.00021     1.00000     0.00000
          Z               0.00000    -0.00000     1.00000
   Rotational Symmetry Number is   1
   The Molecule is an Asymmetric Top
   Translational Enthalpy:        0.889 kcal/mol
   Rotational Enthalpy:           0.889 kcal/mol
   Vibrational Enthalpy:        131.103 kcal/mol
   gas constant (RT):             0.592 kcal/mol
   Translational Entropy:        40.928  cal/mol.K
   Rotational Entropy:           30.194  cal/mol.K
   Vibrational Entropy:          38.207  cal/mol.K

   Total Enthalpy:              133.472 kcal/mol
   Total Entropy:               109.329  cal/mol.K
Archival summary:
1\1\mm2.localdomain\FREQ\ProcedureUnspecified\6-311+G**\i1914\xuedong\SatJun2013:43:152020SatJun2013:43:152020\0\\#,FREQ,ProcedureUnspecified,6-311+G**,\\0,1\Si\C,1,1.87479\H,2,1.09505,1,111.772\H,2,1.09505,1,111.772,3,-121.049,0\H,2,1.09711,1,110.187,3,119.476,0\C,1,1.87703,2,109.98,3,-179.772,0\H,6,1.09484,1,110.808,2,-56.0545,0\H,6,1.096,1,111.076,2,-175.507,0\H,6,1.097,1,111.411,2,64.3213,0\C,1,1.87703,2,109.98,3,-59.177,0\H,10,1.09484,1,110.808,2,56.0519,0\H,10,1.096,1,111.076,2,175.505,0\H,10,1.097,1,111.411,2,-64.3237,0\C,1,1.88482,2,110.086,3,60.5255,0\C,14,1.39674,1,122.868,2,0.00137311,0\H,15,1.08843,14,119.639,1,-0,0\C,15,1.38948,14,121.262,1,180,0\H,17,1.08628,15,120.196,14,-180,0\C,17,1.38732,15,119.981,14,0,0\H,19,1.08784,17,120.146,15,-180,0\C,19,1.38932,17,119.801,15,-0,0\H,21,1.08643,19,119.83,17,180,0\C,21,1.38672,19,119.825,17,-0,0\H,23,1.08994,21,118.96,19,-180,0\\\@

 Total job time:  12896.86s(wall), 35555.07s(cpu) 
 Sat Jun 20 13:43:15 2020

        *************************************************************
        *                                                           *
        *  Thank you very much for using Q-Chem.  Have a nice day.  *
        *                                                           *
        *************************************************************


