
Running Job 1 of 2 16.freq.M06.qcinp
qchem 16.freq.M06.qcinp_23035.0 /scratch/xuedong/qchem23035/ 1
/home/qwang/software/qchem5.1/exe/qcprog.exe_s 16.freq.M06.qcinp_23035.0 /scratch/xuedong/qchem23035/
Check license passed

                  Welcome to Q-Chem
     A Quantum Leap Into The Future Of Chemistry


 Q-Chem 5.1, Q-Chem, Inc., Pleasanton, CA (2018)

 Yihan Shao,  Zhengting Gan,  E. Epifanovsky,  A. T. B. Gilbert,  M. Wormit,  
 J. Kussmann,  A. W. Lange,  A. Behn,  Jia Deng,  Xintian Feng,  D. Ghosh,  
 M. Goldey,  P. R. Horn,  L. D. Jacobson,  I. Kaliman,  T. Kus,  A. Landau,  
 Jie Liu,  E. I. Proynov,  R. M. Richard,  R. P. Steele,  E. J. Sundstrom,  
 H. L. Woodcock III,  P. M. Zimmerman,  D. Zuev,  B. Albrecht,  E. Alguire,  
 S. A. Baeppler,  D. Barton,  Z. Benda,  Y. A. Bernard,  E. J. Berquist,  
 K. B. Bravaya,  H. Burton,  D. Casanova,  Chun-Min Chang,  Yunqing Chen,  
 A. Chien,  K. D. Closser,  M. P. Coons,  S. Coriani,  S. Dasgupta,  
 A. L. Dempwolff,  M. Diedenhofen,  Hainam Do,  R. G. Edgar,  Po-Tung Fang,  
 S. Faraji,  S. Fatehi,  Qingguo Feng,  K. D. Fenk,  J. Fosso-Tande,  
 Qinghui Ge,  A. Ghysels,  G. Gidofalvi,  J. Gomes,  J. Gonthier,  A. Gunina,  
 D. Hait,  M. W. D. Hanson-Heine,  P. H. P. Harbach,  A. W. Hauser,  
 J. E. Herr,  E. G. Hohenstein,  Z. C. Holden,  Kerwin Hui,  B. C. Huynh,  
 T.-C. Jagau,  Hyunjun Ji,  B. Kaduk,  K. Khistyaev,  Jaehoon Kim,  
 P. Klunzinger,  K. Koh,  D. Kosenkov,  L. Koulias,  T. Kowalczyk,  
 C. M. Krauter,  A. Kunitsa,  Ka Un Lao,  A. Laurent,  K. V. Lawler,  
 Joonho Lee,  D. Lefrancois,  S. Lehtola,  D. S. Levine,  Yi-Pei Li,  
 You-Sheng Lin,  Fenglai Liu,  E. Livshits,  A. Luenser,  P. Manohar,  
 E. Mansoor,  S. F. Manzer,  Shan-Ping Mao,  Yuezhi Mao,  N. Mardirossian,  
 A. V. Marenich,  T. Markovich,  L. A. Martinez-Martinez,  S. A. Maurer,  
 N. J. Mayhall,  S. C. McKenzie,  J.-M. Mewes,  A. F. Morrison,  
 J. W. Mullinax,  K. Nanda,  T. S. Nguyen-Beck,  R. Olivares-Amaya,  
 J. A. Parkhill,  T. M. Perrine,  F. Plasser,  P. Pokhilko,  S. Prager,  
 A. Prociuk,  E. Ramos,  D. R. Rehn,  F. Rob,  M. Schneider,  N. Sergueev,  
 S. M. Sharada,  S. Sharma,  D. W. Small,  T. Stauch,  T. Stein,  
 Yu-Chuan Su,  A. J. W. Thom,  A. Tkatchenko,  T. Tsuchimochi,  N. M. Tubman,  
 L. Vogt,  M. L. Vidal,  O. Vydrov,  M. A. Watson,  J. Wenzel,  
 M. de Wergifosse,  T. A. Wesolowski,  A. White,  J. Witte,  A. Yamada,  
 Jun Yang,  K. Yao,  S. Yeganeh,  S. R. Yost,  Zhi-Qiang You,  A. Zech,  
 Igor Ying Zhang,  Xing Zhang,  Yan Zhao,  Ying Zhu,  B. R. Brooks,  
 G. K. L. Chan,  C. J. Cramer,  M. S. Gordon,  W. J. Hehre,  A. Klamt,  
 M. W. Schmidt,  C. D. Sherrill,  D. G. Truhlar,  A. Aspuru-Guzik,  R. Baer,  
 A. T. Bell,  N. A. Besley,  Jeng-Da Chai,  R. A. DiStasio Jr.,  A. Dreuw,  
 B. D. Dunietz,  T. R. Furlani,  Chao-Ping Hsu,  Yousung Jung,  Jing Kong,  
 D. S. Lambrecht,  WanZhen Liang,  C. Ochsenfeld,  V. A. Rassolov,  
 L. V. Slipchenko,  J. E. Subotnik,  T. Van Voorhis,  J. M. Herbert,  
 A. I. Krylov,  P. M. W. Gill,  M. Head-Gordon

 Contributors to earlier versions of Q-Chem not listed above: 
 R. D. Adamson,  B. Austin,  J. Baker,  G. J. O. Beran,  K. Brandhorst,  
 S. T. Brown,  E. F. C. Byrd,  A. K. Chakraborty,  C.-L. Cheng,  
 Siu Hung Chien,  D. M. Chipman,  D. L. Crittenden,  H. Dachsel,  
 R. J. Doerksen,  A. D. Dutoi,  L. Fusti-Molnar,  W. A. Goddard III,  
 A. Golubeva-Zadorozhnaya,  S. R. Gwaltney,  G. Hawkins,  A. Heyden,  
 S. Hirata,  G. Kedziora,  F. J. Keil,  C. Kelley,  Jihan Kim,  R. A. King,  
 R. Z. Khaliullin,  P. P. Korambath,  W. Kurlancheek,  A. M. Lee,  M. S. Lee,  
 S. V. Levchenko,  Ching Yeh Lin,  D. Liotard,  R. C. Lochan,  I. Lotan,  
 P. E. Maslen,  N. Nair,  D. P. O'Neill,  D. Neuhauser,  E. Neuscamman,  
 C. M. Oana,  R. Olson,  B. Peters,  R. Peverati,  P. A. Pieniazek,  
 Y. M. Rhee,  J. Ritchie,  M. A. Rohrdanz,  E. Rosta,  N. J. Russ,  
 H. F. Schaefer III,  N. E. Schultz,  N. Shenvi,  A. C. Simmonett,  A. Sodt,  
 D. Stuck,  K. S. Thanthiriwatte,  V. Vanovschi,  Tao Wang,  A. Warshel,  
 C. F. Williams,  Q. Wu,  X. Xu,  W. Zhang

 Please cite Q-Chem as follows:
 Y. Shao et al., Mol. Phys. 113, 184-215 (2015)
 DOI: 10.1080/00268976.2014.952696

 Q-Chem 5.1.0 for Intel X86 EM64T Linux

 Parts of Q-Chem use Armadillo 8.300.2 (Tropical Shenanigans).
 http://arma.sourceforge.net/

 Q-Chem begins on Fri Jun 26 19:03:27 2020  

Host: 
0

     Scratch files written to /scratch/xuedong/qchem23035//
 May118 |scratch|qcdevops|jenkins|workspace|build_RNUM 6581   
Processing $rem in /home/qwang/software/qchem5.1/config/preferences.
 MEM_TOTAL  2000 

Checking the input file for inconsistencies... 	...done.

--------------------------------------------------------------
User input:
--------------------------------------------------------------
$molecule
0 1
C        -1.1253244235   -1.1098114694    0.4445669093
C        -0.4183693923   -0.0077880305   -0.0734609347
C        -1.1674044083    1.0853018649   -0.5468030015
C        -2.5635343439    1.0798304259   -0.5104324268
C        -3.2431893159   -0.0251416597    0.0064300636
C        -2.5210952140   -1.1225449401    0.4810165374
Si        1.4630090524    0.0016675069   -0.0571922862
C         2.1519295759    0.5677488236    1.5991587513
N         1.9327695744   -1.6712566801   -0.2410538781
C         2.0811557827    1.1725475435   -1.4026342324
H        -0.5703641943   -1.9723355450    0.8086096375
H        -0.6582227097    1.9536688408   -0.9622521022
H        -3.1210792207    1.9358433232   -0.8846986243
H        -4.3305989830   -0.0327957766    0.0346635803
H        -3.0465469904   -1.9866846700    0.8822945101
H         3.2464045196    0.5225424195    1.6144706151
H         1.8622773003    1.6014455372    1.8114324527
H         1.7763747528   -0.0623416605    2.4100232833
H         2.8995113015   -1.9240370090   -0.0630803648
H         1.5825543351   -2.1827193703   -1.0447722435
H         3.1746722796    1.1502642240   -1.4587769470
H         1.6906170358    0.8971656634   -2.3871101332
H         1.7884556359    2.2094416640   -1.2062492257
$end

$rem
JOBTYPE  =  opt
METHOD  =  M06
BASIS  =  6-311G+(d,p)
SCF_MAX_CYCLES  =  200
GEOM_OPT_MAX_CYCLES  =  300
GEOM_OPT_TOL_DISPLACEMENT = 10
GEOM_OPT_TOL_ENERGY = 1
GEOM_OPT_TOL_GRADIENT = 1
$end
--------------------------------------------------------------
 ----------------------------------------------------------------
             Standard Nuclear Orientation (Angstroms)
    I     Atom           X                Y                Z
 ----------------------------------------------------------------
    1      C      -1.1393412280    -1.1920216559    -0.0535181728
    2      C      -0.4120571831     0.0135123116    -0.0350873728
    3      C      -1.1406668232     1.2154320736     0.0317599508
    4      C      -2.5366479950     1.2176129932     0.0737523791
    5      C      -3.2366920018     0.0094996606     0.0527383642
    6      C      -2.5350988029    -1.1963892827    -0.0146783440
    7      Si      1.4691735845    -0.0165150189    -0.0322436142
    8      C       2.1688902917    -0.2553619085     1.6974693670
    9      N       1.9075979046    -1.4418849929    -0.9428807105
   10      C       2.1087729501     1.6191888904    -0.7240996999
   11      H      -0.6004937800    -2.1356254961    -0.1144358670
   12      H      -0.6154595810     2.1693773195     0.0401850868
   13      H      -3.0782033154     2.1599596530     0.1226416863
   14      H      -4.3240491226     0.0082002065     0.0838559537
   15      H      -3.0764974389    -2.1399904891    -0.0337920497
   16      H       3.2623344286    -0.3208623764     1.6818782589
   17      H       1.8986215534     0.5815991034     2.3485749916
   18      H       1.7818170832    -1.1733917902     2.1479715314
   19      H       2.8694926613    -1.7634154075    -0.9036544122
   20      H       1.5477286612    -1.5379026834    -1.8870643468
   21      H       3.2016712754     1.6059386703    -0.7935587660
   22      H       1.7129536723     1.8155669671    -1.7252546541
   23      H       1.8355131399     2.4661130444    -0.0857906702
 ----------------------------------------------------------------
 Molecular Point Group                 C1    NOp =  1
 Largest Abelian Subgroup              C1    NOp =  1
 Nuclear Repulsion Energy =   590.0258367285 hartrees
 There are       41 alpha and       41 beta electrons
 Requested basis set is 6-311+G(d,p)
 There are 119 shells and 306 basis functions

 Total QAlloc Memory Limit   2000 MB
 Mega-Array Size       188 MB
 MEM_STATIC part       192 MB
 A cutoff of  1.0D-11 yielded   5917 shell pairs
 There are     40666 function pairs (     43332 Cartesian)
 
 -------------------------------------------------------
 OpenMP Integral Computing Module                       
 Release: version 1.0, May 2013, Q-Chem Inc. Pittsburgh 
 -------------------------------------------------------
 Integral Job Info:
 Integral job number is                      11
 Integral operator is                         1
 short-range coefficients                     0
 long-range coefficients              100000000
 Omega coefficients                           0
 if combine SR and LR in K                    0
 Integral screening is                        0
 Integral computing path is                   2
 max size of driver memory is            800000
 size of driver memory is                593474
 size of scratch memory is              4204008
 max col of scratch BK array               1296
 max len of scratch array in speh3          155
 max len of scratch index in speh4           18
 max int batch size is                      520
 min int batch size is                       52
 fixed nKL is                                52
 max L of basis functions is                  2
 order of int derivative is                   0
 number of shells is                        119
 number of basis is                         316
 number of cartesian basis is               316
 number of contracted shell pairs          5917
 number of primitive shell pairs          13625
 maxK2 (contraction) of shell pair           36
 max number of K2 of shell pair               1
 max number of CS2 of shell pair            885
 max number of PS2 of shell pair           1629
 mem total for path MDJ                  561516
 -------------------------------------------------------
 Smallest overlap matrix eigenvalue = 2.20E-06

 Q-Chem warning in module stvman/mkSTV.C, line 295:

 Overlap eigenvalue is smaller than square root of threshold


 Scale SEOQF with 1.000000e-01/1.000000e-01/1.000000e-01

 Standard Electronic Orientation quadrupole field applied
 Nucleus-field energy     =     0.0000000148 hartrees
 Guess from superposition of atomic densities
 Warning:  Energy on first SCF cycle will be non-variational
 SAD guess density has 82.000000 electrons

 -----------------------------------------------------------------------
  General SCF calculation program by
  Eric Jon Sundstrom, Paul Horn, Yuezhi Mao, Dmitri Zuev, Alec White,
  David Stuck, Shaama M.S., Shane Yost, Joonho Lee, David Small,
  Daniel Levine, Susi Lehtola, Hugh Burton, Evgeny Epifanovsky
 -----------------------------------------------------------------------
 Exchange:     0.2700 Hartree-Fock + 1.0000 M06
 Correlation:  1.0000 M06
 Using SG-3 standard quadrature grid
 using 4 threads for integral computing
 -------------------------------------------------------
 OpenMP Integral computing Module                
 Release: version 1.0, May 2013, Q-Chem Inc. Pittsburgh 
 -------------------------------------------------------
 -------------------------------------------------------
 OpenMP BLAS3 based DFT computing Module                
 Release: version 1.0, May 2013, Q-Chem Inc. Pittsburgh 
 -------------------------------------------------------
 A restricted SCF calculation will be
 performed using DIIS
 SCF converges when DIIS error is below 1.0e-08
 ---------------------------------------
  Cycle       Energy         DIIS error
 ---------------------------------------
    1    -658.8235359152      3.55e-02  
    2    -656.4961140589      4.82e-03  
    3    -656.3871475448      5.81e-03  
    4    -656.7756228630      6.07e-04  
    5    -656.7786248534      3.19e-04  
    6    -656.7797066470      8.33e-05  
    7    -656.7797638584      4.99e-05  
    8    -656.7797942691      9.21e-06  
    9    -656.7797952492      3.22e-06  
   10    -656.7797953541      1.16e-06  
   11    -656.7797953655      6.81e-07  
   12    -656.7797953711      1.39e-07  
   13    -656.7797953713      5.13e-08  
   14    -656.7797953713      9.18e-09  Convergence criterion met
 ---------------------------------------
 SCF time:   CPU 294.54s  wall 74.00s 
 SCF   energy in the final basis set =     -656.7797953713
 Total energy in the final basis set =     -656.7797953713
 
 --------------------------------------------------------------
 
                    Orbital Energies (a.u.)
 --------------------------------------------------------------
 
 Alpha MOs
 -- Occupied --
-66.255 -14.355 -10.243 -10.243 -10.241 -10.240 -10.239 -10.227
-10.209 -10.208  -5.361  -3.681  -3.680  -3.680  -0.865  -0.855
 -0.756  -0.755  -0.712  -0.690  -0.613  -0.609  -0.536  -0.497
 -0.490  -0.463  -0.456  -0.432  -0.423  -0.420  -0.404  -0.402
 -0.394  -0.379  -0.370  -0.351  -0.324  -0.310  -0.270  -0.265
 -0.262
 -- Virtual --
 -0.037  -0.022  -0.021  -0.019  -0.017  -0.012  -0.003  -0.002
  0.010   0.024   0.025   0.026   0.031   0.049   0.052   0.055
  0.058   0.066   0.069   0.076   0.086   0.092   0.099   0.101
  0.108   0.109   0.112   0.116   0.127   0.129   0.129   0.137
  0.139   0.151   0.158   0.160   0.163   0.168   0.171   0.175
  0.177   0.183   0.189   0.192   0.193   0.203   0.207   0.208
  0.212   0.216   0.221   0.226   0.235   0.243   0.249   0.258
  0.276   0.287   0.295   0.302   0.312   0.319   0.323   0.327
  0.354   0.366   0.387   0.406   0.434   0.447   0.487   0.496
  0.506   0.513   0.514   0.518   0.523   0.528   0.538   0.550
  0.554   0.569   0.579   0.589   0.598   0.609   0.615   0.620
  0.628   0.639   0.650   0.654   0.668   0.678   0.680   0.698
  0.707   0.709   0.718   0.740   0.746   0.769   0.782   0.793
  0.801   0.808   0.813   0.824   0.845   0.851   0.863   0.866
  0.886   0.898   0.902   0.919   0.932   0.952   0.984   0.996
  0.998   1.027   1.049   1.069   1.077   1.109   1.125   1.136
  1.145   1.183   1.200   1.250   1.270   1.279   1.303   1.335
  1.396   1.460   1.464   1.476   1.484   1.498   1.507   1.536
  1.543   1.545   1.554   1.561   1.577   1.588   1.602   1.609
  1.625   1.629   1.634   1.652   1.676   1.713   1.732   1.735
  1.747   1.767   1.775   1.785   1.793   1.802   1.820   1.849
  1.860   1.904   1.917   1.922   1.933   1.952   1.977   1.982
  2.002   2.017   2.045   2.065   2.069   2.083   2.094   2.174
  2.193   2.215   2.230   2.262   2.272   2.288   2.316   2.324
  2.353   2.391   2.395   2.423   2.450   2.458   2.469   2.480
  2.486   2.514   2.519   2.554   2.580   2.591   2.611   2.621
  2.640   2.646   2.661   2.678   2.683   2.688   2.717   2.719
  2.751   2.759   2.791   2.807   2.822   2.827   2.875   2.878
  2.916   2.940   2.973   3.074   3.093   3.131   3.164   3.241
  3.298   3.321   3.348   3.435   3.465   3.503   3.675   3.689
  3.704   3.716   3.747   3.905   3.956   3.979   4.092   4.107
  4.314   4.682   4.811   5.918  11.665  11.704  11.746  23.541
 23.911  23.920  23.941  23.946  24.031  24.061  24.155  35.566
141.324
 --------------------------------------------------------------
 
          Ground-State Mulliken Net Atomic Charges

     Atom                 Charge (a.u.)
  ----------------------------------------
      1 C                     0.155965
      2 C                    -0.547743
      3 C                    -0.090995
      4 C                    -0.341390
      5 C                    -0.186513
      6 C                    -0.113512
      7 Si                    0.959747
      8 C                    -0.710132
      9 N                    -0.807434
     10 C                    -0.682429
     11 H                     0.177488
     12 H                     0.140170
     13 H                     0.156538
     14 H                     0.165077
     15 H                     0.157769
     16 H                     0.169121
     17 H                     0.173458
     18 H                     0.183635
     19 H                     0.270146
     20 H                     0.262530
     21 H                     0.174428
     22 H                     0.178274
     23 H                     0.155801
  ----------------------------------------
  Sum of atomic charges =     0.000000

 -----------------------------------------------------------------
                    Cartesian Multipole Moments
 -----------------------------------------------------------------
    Charge (ESU x 10^10)
                 0.0000
    Dipole Moment (Debye)
         X       0.6334      Y       0.1934      Z      -0.5810
       Tot       0.8810
    Quadrupole Moments (Debye-Ang)
        XX     -62.1211     XY      -1.2197     YY     -67.3301
        XZ      -1.4064     YZ       1.9586     ZZ     -70.8153
    Octopole Moments (Debye-Ang^2)
       XXX       2.7949    XXY      -9.4889    XYY      -5.6813
       YYY      -0.3895    XXZ      -3.0714    XYZ       3.5775
       YYZ      -0.4047    XZZ      10.8722    YZZ      -4.9571
       ZZZ     -10.3243
    Hexadecapole Moments (Debye-Ang^3)
      XXXX   -1663.9728   XXXY     -40.1099   XXYY    -378.7383
      XYYY     -11.6890   YYYY    -584.7524   XXXZ     -19.9361
      XXYZ      14.2703   XYYZ      -3.6990   YYYZ      12.1538
      XXZZ    -386.2752   XYZZ      -8.5083   YYZZ    -149.5462
      XZZZ     -16.8554   YZZZ      14.7463   ZZZZ    -316.3141
 -----------------------------------------------------------------
 Calculating analytic gradient of the SCF energy
 Gradient of SCF Energy
            1           2           3           4           5           6
    1   0.0037653   0.0079760   0.0034355  -0.0036292  -0.0079452  -0.0036571
    2  -0.0064892  -0.0000084   0.0062699   0.0057380  -0.0000558  -0.0056321
    3   0.0006153  -0.0016202   0.0010236  -0.0001840   0.0006139  -0.0007113
            7           8           9          10          11          12
    1  -0.0015945   0.0022542  -0.0017535   0.0013657  -0.0003386  -0.0004477
    2   0.0014033  -0.0006622  -0.0061514   0.0030534  -0.0004281   0.0006258
    3   0.0001814   0.0032619  -0.0004243  -0.0011446  -0.0004840  -0.0001216
           13          14          15          16          17          18
    1  -0.0002627  -0.0000643  -0.0002288  -0.0013302   0.0002664   0.0006079
    2   0.0012378   0.0000083  -0.0012300   0.0000833  -0.0001424   0.0003855
    3   0.0000978  -0.0000522   0.0000628   0.0004472   0.0000706  -0.0001909
           19          20          21          22          23
    1   0.0026484  -0.0007873  -0.0012393   0.0007012   0.0002577
    2   0.0006391   0.0009552   0.0003411  -0.0001456   0.0002045
    3   0.0004600  -0.0019722   0.0000401   0.0006909  -0.0006603
 Max gradient component =       7.976E-03
 RMS gradient           =       2.490E-03
 Gradient time:  CPU 82.41 s  wall 47.46 s
 Geometry Optimization Parameters
   NAtoms,    NIC,     NZ,  NCons,   NDum,   NFix, NCnnct, MaxDiis
       23     162       0       0       0       0       0       0


** GEOMETRY OPTIMIZATION IN DELOCALIZED INTERNAL COORDINATES **
   Searching for a Minimum

   Optimization Cycle:   1

                       Coordinates (Angstroms)
     ATOM                X               Y               Z
      1  C        -1.1393412280   -1.1920216559   -0.0535181728
      2  C        -0.4120571831    0.0135123116   -0.0350873728
      3  C        -1.1406668232    1.2154320736    0.0317599508
      4  C        -2.5366479950    1.2176129932    0.0737523791
      5  C        -3.2366920018    0.0094996606    0.0527383642
      6  C        -2.5350988029   -1.1963892827   -0.0146783440
      7  Si        1.4691735845   -0.0165150189   -0.0322436142
      8  C         2.1688902917   -0.2553619085    1.6974693670
      9  N         1.9075979046   -1.4418849929   -0.9428807105
     10  C         2.1087729501    1.6191888904   -0.7240996999
     11  H        -0.6004937800   -2.1356254961   -0.1144358670
     12  H        -0.6154595810    2.1693773195    0.0401850868
     13  H        -3.0782033154    2.1599596530    0.1226416863
     14  H        -4.3240491226    0.0082002065    0.0838559537
     15  H        -3.0764974389   -2.1399904891   -0.0337920497
     16  H         3.2623344286   -0.3208623764    1.6818782589
     17  H         1.8986215534    0.5815991034    2.3485749916
     18  H         1.7818170832   -1.1733917902    2.1479715314
     19  H         2.8694926613   -1.7634154075   -0.9036544122
     20  H         1.5477286612   -1.5379026834   -1.8870643468
     21  H         3.2016712754    1.6059386703   -0.7935587660
     22  H         1.7129536723    1.8155669671   -1.7252546541
     23  H         1.8355131399    2.4661130444   -0.0857906702
   Point Group: c1    Number of degrees of freedom:    63


   Energy is   -656.779795371


 Attempting to Generate Delocalized Internal Coordinates

 63 Hessian modes will be used to form the next step
  Hessian Eigenvalues:
     0.002704    0.003523    0.003572    0.013029    0.014105    0.021587
     0.022070    0.022198    0.022572    0.022852    0.022862    0.022866
     0.022872    0.025934    0.049465    0.053067    0.053234    0.054725
     0.054802    0.055347    0.067607    0.149486    0.159980    0.159989
     0.159998    0.159999    0.160000    0.160000    0.160000    0.160000
     0.160000    0.160000    0.160000    0.160000    0.160000    0.166432
     0.202703    0.206223    0.206434    0.219997    0.219999    0.234574
     0.249762    0.307475    0.341830    0.342204    0.342223    0.343175
     0.343207    0.344209    0.349282    0.350067    0.350385    0.350477
     0.350678    0.412840    0.414702    0.448292    0.451468    0.451505
     0.454475    0.461882    0.462183

 Minimum Search - Taking Simple RFO Step
 Searching for Lamda that Minimizes Along All modes
 Value Taken    Lamda =  -0.00138822
 Step Taken.  Stepsize is  0.162091

                             Maximum     Tolerance    Cnvgd?
         Gradient           0.011654      0.000001      NO
         Displacement       0.089767      0.000010      NO
         Energy change     *********      0.000000      NO


 New Cartesian Coordinates Obtained by Inverse Iteration

 Displacement from previous Coordinates is:  0.358015
 ----------------------------------------------------------------
             Standard Nuclear Orientation (Angstroms)
    I     Atom           X                Y                Z
 ----------------------------------------------------------------
    1      C      -1.1334840367    -1.1849186437    -0.0223582086
    2      C      -0.4139195792     0.0137622136    -0.0330980703
    3      C      -1.1364194588     1.2088485744    -0.0027811368
    4      C      -2.5234120699     1.2111461791     0.0400772878
    5      C      -3.2174644564     0.0097551293     0.0500814117
    6      C      -2.5201263327    -1.1896581320     0.0182849802
    7      Si      1.4637865486    -0.0127671962    -0.0348168260
    8      C       2.1573835384    -0.2740368979     1.6830749661
    9      N       1.9080698988    -1.4152587403    -0.9623071264
   10      C       2.0974179949     1.6255089077    -0.6990904987
   11      H      -0.5899345810    -2.1270022012    -0.0498549722
   12      H      -0.6072396949     2.1599135309    -0.0189051440
   13      H      -3.0674546878     2.1509647806     0.0619238425
   14      H      -4.3047295442     0.0083438887     0.0810754427
   15      H      -3.0624647896    -2.1308556217     0.0246406836
   16      H       3.2523830331    -0.3468232946     1.6649351349
   17      H       1.8908159344     0.5582999155     2.3419705273
   18      H       1.7609984110    -1.1942200684     2.1232676200
   19      H       2.8604524347    -1.7558162859    -0.9215132720
   20      H       1.5437002617    -1.5170824780    -1.9015863064
   21      H       3.1902743614     1.6049450849    -0.7932174236
   22      H       1.6771494346     1.8508897768    -1.6855826203
   23      H       1.8435773141     2.4547013703    -0.0294514019
 ----------------------------------------------------------------
 Molecular Point Group                 C1    NOp =  1
 Largest Abelian Subgroup              C1    NOp =  1
 Nuclear Repulsion Energy =   592.7748527975 hartrees
 There are       41 alpha and       41 beta electrons
 Applying Cartesian multipole field
    Component          Value
    ---------          -----
     (2,0,0)        1.00000E-11
     (0,2,0)        2.00000E-11
     (0,0,2)       -3.00000E-11
 Nucleus-field energy     =     0.0000000147 hartrees
 Requested basis set is 6-311+G(d,p)
 There are 119 shells and 306 basis functions
 A cutoff of  1.0D-11 yielded   5932 shell pairs
 There are     40740 function pairs (     43417 Cartesian)
 Smallest overlap matrix eigenvalue = 2.02E-06

 Q-Chem warning in module stvman/mkSTV.C, line 295:

 Overlap eigenvalue is smaller than square root of threshold

 Guess MOs from SCF MO coefficient file
 Reading MOs from coefficient file
 Reading MOs from coefficient file

 -----------------------------------------------------------------------
  General SCF calculation program by
  Eric Jon Sundstrom, Paul Horn, Yuezhi Mao, Dmitri Zuev, Alec White,
  David Stuck, Shaama M.S., Shane Yost, Joonho Lee, David Small,
  Daniel Levine, Susi Lehtola, Hugh Burton, Evgeny Epifanovsky
 -----------------------------------------------------------------------
 Exchange:     0.2700 Hartree-Fock + 1.0000 M06
 Correlation:  1.0000 M06
 Using SG-3 standard quadrature grid
 using 4 threads for integral computing
 -------------------------------------------------------
 OpenMP Integral computing Module                
 Release: version 1.0, May 2013, Q-Chem Inc. Pittsburgh 
 -------------------------------------------------------
 -------------------------------------------------------
 OpenMP BLAS3 based DFT computing Module                
 Release: version 1.0, May 2013, Q-Chem Inc. Pittsburgh 
 -------------------------------------------------------
 A restricted SCF calculation will be
 performed using DIIS
 SCF converges when DIIS error is below 1.0e-08
 ---------------------------------------
  Cycle       Energy         DIIS error
 ---------------------------------------
    1    -656.8109766167      7.61e-04  
    2    -656.7802704089      1.31e-04  
    3    -656.7801969336      1.73e-04  
    4    -656.7805408615      2.42e-05  
    5    -656.7805458050      1.34e-05  
    6    -656.7805479698      3.81e-06  
    7    -656.7805481435      1.47e-06  
    8    -656.7805481671      3.91e-07  
    9    -656.7805481688      1.20e-07  
   10    -656.7805481690      5.42e-08  
   11    -656.7805481690      2.00e-08  
   12    -656.7805481690      4.17e-09  Convergence criterion met
 ---------------------------------------
 SCF time:   CPU 260.79s  wall 65.00s 
 SCF   energy in the final basis set =     -656.7805481690
 Total energy in the final basis set =     -656.7805481690
 
 --------------------------------------------------------------
 
                    Orbital Energies (a.u.)
 --------------------------------------------------------------
 
 Alpha MOs
 -- Occupied --
-66.252 -14.353 -10.240 -10.240 -10.238 -10.238 -10.237 -10.223
-10.208 -10.208  -5.358  -3.679  -3.678  -3.677  -0.869  -0.856
 -0.758  -0.757  -0.712  -0.690  -0.614  -0.610  -0.538  -0.497
 -0.490  -0.465  -0.456  -0.432  -0.424  -0.421  -0.403  -0.402
 -0.394  -0.382  -0.370  -0.351  -0.324  -0.309  -0.270  -0.267
 -0.262
 -- Virtual --
 -0.037  -0.022  -0.020  -0.019  -0.017  -0.010  -0.003  -0.002
  0.010   0.024   0.025   0.026   0.031   0.049   0.053   0.055
  0.059   0.065   0.068   0.076   0.086   0.092   0.099   0.102
  0.109   0.109   0.114   0.116   0.127   0.129   0.130   0.137
  0.140   0.151   0.159   0.161   0.163   0.169   0.173   0.175
  0.178   0.185   0.190   0.194   0.194   0.203   0.207   0.210
  0.213   0.217   0.223   0.227   0.237   0.245   0.249   0.257
  0.277   0.289   0.295   0.302   0.315   0.322   0.326   0.330
  0.358   0.365   0.389   0.406   0.437   0.448   0.489   0.499
  0.508   0.515   0.518   0.519   0.524   0.529   0.539   0.550
  0.555   0.571   0.583   0.590   0.600   0.609   0.616   0.621
  0.630   0.640   0.653   0.656   0.671   0.680   0.683   0.698
  0.706   0.713   0.720   0.741   0.747   0.768   0.782   0.794
  0.802   0.810   0.816   0.828   0.848   0.858   0.866   0.869
  0.891   0.902   0.907   0.923   0.935   0.956   0.985   0.996
  1.004   1.028   1.053   1.073   1.079   1.112   1.127   1.141
  1.149   1.188   1.205   1.255   1.269   1.281   1.304   1.333
  1.402   1.459   1.464   1.477   1.487   1.504   1.512   1.542
  1.548   1.551   1.559   1.565   1.576   1.590   1.602   1.610
  1.629   1.636   1.638   1.658   1.684   1.719   1.733   1.738
  1.749   1.770   1.778   1.790   1.796   1.804   1.828   1.855
  1.864   1.914   1.925   1.927   1.938   1.957   1.981   1.987
  2.008   2.024   2.047   2.065   2.075   2.089   2.098   2.174
  2.192   2.216   2.232   2.265   2.281   2.296   2.331   2.333
  2.364   2.394   2.396   2.424   2.453   2.460   2.471   2.481
  2.488   2.515   2.526   2.555   2.582   2.599   2.623   2.625
  2.646   2.651   2.669   2.682   2.685   2.693   2.721   2.727
  2.756   2.770   2.796   2.822   2.825   2.837   2.884   2.894
  2.920   2.945   2.980   3.079   3.101   3.143   3.185   3.252
  3.310   3.339   3.364   3.450   3.480   3.530   3.675   3.687
  3.704   3.715   3.758   3.908   3.958   3.985   4.096   4.109
  4.322   4.690   4.829   5.927  11.674  11.710  11.758  23.538
 23.930  23.937  23.943  23.948  24.064  24.093  24.191  35.572
141.335
 --------------------------------------------------------------
 
          Ground-State Mulliken Net Atomic Charges

     Atom                 Charge (a.u.)
  ----------------------------------------
      1 C                     0.205717
      2 C                    -0.580316
      3 C                    -0.052656
      4 C                    -0.389611
      5 C                    -0.170310
      6 C                    -0.133089
      7 Si                    0.956323
      8 C                    -0.704696
      9 N                    -0.803843
     10 C                    -0.683594
     11 H                     0.175036
     12 H                     0.139201
     13 H                     0.155010
     14 H                     0.163350
     15 H                     0.156267
     16 H                     0.168879
     17 H                     0.173635
     18 H                     0.182595
     19 H                     0.270777
     20 H                     0.263117
     21 H                     0.175327
     22 H                     0.176509
     23 H                     0.156371
  ----------------------------------------
  Sum of atomic charges =     0.000000

 -----------------------------------------------------------------
                    Cartesian Multipole Moments
 -----------------------------------------------------------------
    Charge (ESU x 10^10)
                 0.0000
    Dipole Moment (Debye)
         X       0.6192      Y       0.1493      Z      -0.5721
       Tot       0.8561
    Quadrupole Moments (Debye-Ang)
        XX     -62.2372     XY      -1.3019     YY     -67.2385
        XZ      -1.3800     YZ       1.7583     ZZ     -70.6739
    Octopole Moments (Debye-Ang^2)
       XXX       2.6306    XXY      -9.6858    XYY      -5.3976
       YYY      -1.4577    XXZ      -3.0558    XYZ       4.0883
       YYZ      -0.3325    XZZ      10.3667    YZZ      -4.9479
       ZZZ     -10.1841
    Hexadecapole Moments (Debye-Ang^3)
      XXXX   -1650.4580   XXXY     -40.1686   XXYY    -375.4440
      XYYY     -13.0471   YYYY    -580.6811   XXXZ     -19.7051
      XXYZ      14.4286   XYYZ      -3.7297   YYYZ      14.2856
      XXZZ    -382.3843   XYZZ      -8.2939   YYZZ    -148.0444
      XZZZ     -16.7831   YZZZ      18.9084   ZZZZ    -312.9388
 -----------------------------------------------------------------
 Calculating analytic gradient of the SCF energy
 Gradient of SCF Energy
            1           2           3           4           5           6
    1  -0.0002467  -0.0000023  -0.0003088   0.0003374   0.0004515   0.0000423
    2   0.0004704  -0.0000901  -0.0006981  -0.0006728  -0.0002087   0.0008992
    3  -0.0002854  -0.0002980   0.0002633  -0.0000332  -0.0000260  -0.0000388
            7           8           9          10          11          12
    1  -0.0004965   0.0003037  -0.0012993   0.0001124  -0.0001750  -0.0001406
    2   0.0013180  -0.0000174  -0.0033066   0.0002634   0.0001861  -0.0000447
    3   0.0005352   0.0002291   0.0004128   0.0002176   0.0000048  -0.0000589
           13          14          15          16          17          18
    1   0.0002079   0.0001567   0.0002098  -0.0000007  -0.0000859   0.0000630
    2  -0.0000575  -0.0000096   0.0000319   0.0001223   0.0000357   0.0000129
    3   0.0000059  -0.0000462   0.0000279  -0.0000518  -0.0000694  -0.0001476
           19          20          21          22          23
    1   0.0007796   0.0001384   0.0001159  -0.0000858  -0.0000771
    2   0.0009438   0.0009506   0.0000768  -0.0001982  -0.0000075
    3  -0.0000302  -0.0005062   0.0001519  -0.0001121  -0.0001445
 Max gradient component =       3.307E-03
 RMS gradient           =       5.536E-04
 Gradient time:  CPU 80.12 s  wall 45.82 s
 Geometry Optimization Parameters
   NAtoms,    NIC,     NZ,  NCons,   NDum,   NFix, NCnnct, MaxDiis
       23     162       0       0       0       0       0       0

 Cartesian Hessian Update
 Hessian Updated using BFGS Update


** GEOMETRY OPTIMIZATION IN DELOCALIZED INTERNAL COORDINATES **
   Searching for a Minimum

   Optimization Cycle:   2

                       Coordinates (Angstroms)
     ATOM                X               Y               Z
      1  C        -1.1334840367   -1.1849186437   -0.0223582086
      2  C        -0.4139195792    0.0137622136   -0.0330980703
      3  C        -1.1364194588    1.2088485744   -0.0027811368
      4  C        -2.5234120699    1.2111461791    0.0400772878
      5  C        -3.2174644564    0.0097551293    0.0500814117
      6  C        -2.5201263327   -1.1896581320    0.0182849802
      7  Si        1.4637865486   -0.0127671962   -0.0348168260
      8  C         2.1573835384   -0.2740368979    1.6830749661
      9  N         1.9080698988   -1.4152587403   -0.9623071264
     10  C         2.0974179949    1.6255089077   -0.6990904987
     11  H        -0.5899345810   -2.1270022012   -0.0498549722
     12  H        -0.6072396949    2.1599135309   -0.0189051440
     13  H        -3.0674546878    2.1509647806    0.0619238425
     14  H        -4.3047295442    0.0083438887    0.0810754427
     15  H        -3.0624647896   -2.1308556217    0.0246406836
     16  H         3.2523830331   -0.3468232946    1.6649351349
     17  H         1.8908159344    0.5582999155    2.3419705273
     18  H         1.7609984110   -1.1942200684    2.1232676200
     19  H         2.8604524347   -1.7558162859   -0.9215132720
     20  H         1.5437002617   -1.5170824780   -1.9015863064
     21  H         3.1902743614    1.6049450849   -0.7932174236
     22  H         1.6771494346    1.8508897768   -1.6855826203
     23  H         1.8435773141    2.4547013703   -0.0294514019
   Point Group: c1    Number of degrees of freedom:    63


   Energy is   -656.780548169

 Hessian Updated using BFGS Update

 56 Hessian modes will be used to form the next step
  Hessian Eigenvalues:
     0.002651    0.003378    0.003568    0.013028    0.014096    0.021570
     0.022072    0.022133    0.022572    0.022798    0.022853    0.022867
     0.022870    0.023591    0.049464    0.052980    0.053256    0.054703
     0.054805    0.055337    0.067603    0.147734    0.154954    0.159981
     0.159992    0.159998    0.159999    0.160667    0.166353    0.202531
     0.205702    0.209011    0.219945    0.219998    0.234139    0.249959
     0.301352    0.341842    0.342192    0.342372    0.343205    0.343309
     0.344157    0.349305    0.350034    0.350426    0.350624    0.351008
     0.413546    0.414788    0.448298    0.449751    0.451484    0.459559
     0.461857    0.539553

 Minimum Search - Taking Simple RFO Step
 Searching for Lamda that Minimizes Along All modes
 Value Taken    Lamda =  -0.00020369
 Step Taken.  Stepsize is  0.174795

                             Maximum     Tolerance    Cnvgd?
         Gradient           0.001662      0.000001      NO
         Displacement       0.103023      0.000010      NO
         Energy change     -0.000753      0.000000      NO


 New Cartesian Coordinates Obtained by Inverse Iteration

 Displacement from previous Coordinates is:  0.387007
 ----------------------------------------------------------------
             Standard Nuclear Orientation (Angstroms)
    I     Atom           X                Y                Z
 ----------------------------------------------------------------
    1      C      -1.1290049373    -1.1834779854     0.0154238366
    2      C      -0.4135419678     0.0163621021    -0.0342257311
    3      C      -1.1382719221     1.2102729876    -0.0425302706
    4      C      -2.5252111948     1.2101360607     0.0004338652
    5      C      -3.2151883189     0.0075245170     0.0489525983
    6      C      -2.5152639170    -1.1908710770     0.0562570088
    7      Si      1.4652301037    -0.0076968849    -0.0390659010
    8      C       2.1540823079    -0.2982610272     1.6746530705
    9      N       1.9133080206    -1.3904053826    -0.9884015686
   10      C       2.0975110992     1.6410586323    -0.6740669575
   11      H      -0.5815711178    -2.1241437184     0.0184435502
   12      H      -0.6101373229     2.1610565764    -0.0886092510
   13      H      -3.0734900049     2.1477245963    -0.0085530168
   14      H      -4.3026962888     0.0040667246     0.0798428121
   15      H      -3.0565576913    -2.1320377218     0.0918195418
   16      H       3.2482772372    -0.3853895465     1.6564828807
   17      H       1.8978554788     0.5290460993     2.3439726787
   18      H       1.7452328297    -1.2183585646     2.1041647413
   19      H       2.8561047718    -1.7539977348    -0.9445863669
   20      H       1.5402846213    -1.4988230417    -1.9227651772
   21      H       3.1873666670     1.6120153307    -0.7969833766
   22      H       1.6550693278     1.9003914516    -1.6423506290
   23      H       1.8699721530     2.4524473981     0.0264605519
 ----------------------------------------------------------------
 Molecular Point Group                 C1    NOp =  1
 Largest Abelian Subgroup              C1    NOp =  1
 Nuclear Repulsion Energy =   592.9119499043 hartrees
 There are       41 alpha and       41 beta electrons
 Applying Cartesian multipole field
    Component          Value
    ---------          -----
     (2,0,0)        1.00000E-11
     (0,2,0)        2.00000E-11
     (0,0,2)       -3.00000E-11
 Nucleus-field energy     =     0.0000000147 hartrees
 Requested basis set is 6-311+G(d,p)
 There are 119 shells and 306 basis functions
 A cutoff of  1.0D-11 yielded   5932 shell pairs
 There are     40748 function pairs (     43425 Cartesian)
 Smallest overlap matrix eigenvalue = 2.03E-06

 Q-Chem warning in module stvman/mkSTV.C, line 295:

 Overlap eigenvalue is smaller than square root of threshold

 Guess MOs from SCF MO coefficient file
 Reading MOs from coefficient file
 Reading MOs from coefficient file

 -----------------------------------------------------------------------
  General SCF calculation program by
  Eric Jon Sundstrom, Paul Horn, Yuezhi Mao, Dmitri Zuev, Alec White,
  David Stuck, Shaama M.S., Shane Yost, Joonho Lee, David Small,
  Daniel Levine, Susi Lehtola, Hugh Burton, Evgeny Epifanovsky
 -----------------------------------------------------------------------
 Exchange:     0.2700 Hartree-Fock + 1.0000 M06
 Correlation:  1.0000 M06
 Using SG-3 standard quadrature grid
 using 4 threads for integral computing
 -------------------------------------------------------
 OpenMP Integral computing Module                
 Release: version 1.0, May 2013, Q-Chem Inc. Pittsburgh 
 -------------------------------------------------------
 -------------------------------------------------------
 OpenMP BLAS3 based DFT computing Module                
 Release: version 1.0, May 2013, Q-Chem Inc. Pittsburgh 
 -------------------------------------------------------
 A restricted SCF calculation will be
 performed using DIIS
 SCF converges when DIIS error is below 1.0e-08
 ---------------------------------------
  Cycle       Energy         DIIS error
 ---------------------------------------
    1    -656.7847613432      8.32e-04  
    2    -656.7805379295      1.00e-04  
    3    -656.7804764213      1.46e-04  
    4    -656.7807136456      1.73e-05  
    5    -656.7807161133      1.09e-05  
    6    -656.7807174663      3.92e-06  
    7    -656.7807176640      8.63e-07  
    8    -656.7807176718      2.48e-07  
    9    -656.7807176724      1.04e-07  
   10    -656.7807176725      4.49e-08  
   11    -656.7807176726      1.50e-08  
   12    -656.7807176726      2.02e-09  Convergence criterion met
 ---------------------------------------
 SCF time:   CPU 263.19s  wall 66.00s 
 SCF   energy in the final basis set =     -656.7807176726
 Total energy in the final basis set =     -656.7807176726
 
 --------------------------------------------------------------
 
                    Orbital Energies (a.u.)
 --------------------------------------------------------------
 
 Alpha MOs
 -- Occupied --
-66.251 -14.353 -10.240 -10.240 -10.238 -10.238 -10.237 -10.223
-10.208 -10.207  -5.358  -3.679  -3.677  -3.677  -0.869  -0.856
 -0.758  -0.757  -0.712  -0.690  -0.614  -0.610  -0.538  -0.498
 -0.491  -0.465  -0.456  -0.433  -0.424  -0.421  -0.403  -0.402
 -0.394  -0.382  -0.370  -0.351  -0.324  -0.309  -0.270  -0.267
 -0.262
 -- Virtual --
 -0.037  -0.022  -0.020  -0.019  -0.016  -0.010  -0.003  -0.002
  0.010   0.024   0.025   0.026   0.031   0.049   0.052   0.055
  0.059   0.065   0.068   0.077   0.086   0.091   0.099   0.103
  0.108   0.109   0.114   0.116   0.127   0.128   0.130   0.137
  0.140   0.150   0.159   0.160   0.163   0.169   0.174   0.176
  0.179   0.186   0.190   0.194   0.194   0.203   0.207   0.210
  0.213   0.217   0.224   0.227   0.237   0.244   0.250   0.256
  0.278   0.288   0.293   0.301   0.315   0.322   0.327   0.331
  0.358   0.363   0.390   0.406   0.438   0.448   0.491   0.501
  0.508   0.515   0.519   0.520   0.524   0.529   0.539   0.550
  0.556   0.572   0.583   0.590   0.601   0.608   0.616   0.622
  0.630   0.640   0.653   0.657   0.671   0.680   0.684   0.698
  0.704   0.713   0.720   0.740   0.748   0.768   0.780   0.793
  0.802   0.810   0.817   0.829   0.848   0.860   0.866   0.870
  0.892   0.903   0.909   0.923   0.935   0.958   0.984   0.996
  1.008   1.028   1.053   1.074   1.078   1.112   1.124   1.141
  1.151   1.190   1.205   1.254   1.269   1.282   1.303   1.333
  1.407   1.458   1.465   1.475   1.486   1.503   1.510   1.542
  1.548   1.553   1.560   1.569   1.576   1.592   1.602   1.611
  1.627   1.638   1.638   1.659   1.687   1.719   1.732   1.737
  1.748   1.770   1.778   1.791   1.796   1.804   1.831   1.853
  1.863   1.914   1.925   1.928   1.938   1.959   1.981   1.991
  2.008   2.026   2.047   2.066   2.075   2.089   2.100   2.174
  2.191   2.216   2.234   2.266   2.281   2.296   2.331   2.333
  2.364   2.394   2.398   2.422   2.450   2.460   2.471   2.481
  2.489   2.511   2.525   2.555   2.581   2.602   2.623   2.626
  2.648   2.651   2.674   2.682   2.686   2.694   2.722   2.732
  2.758   2.773   2.797   2.822   2.826   2.845   2.887   2.894
  2.920   2.946   2.984   3.079   3.101   3.145   3.186   3.252
  3.312   3.341   3.363   3.450   3.480   3.531   3.676   3.687
  3.705   3.715   3.758   3.908   3.955   3.984   4.096   4.110
  4.323   4.694   4.830   5.926  11.677  11.709  11.763  23.538
 23.930  23.936  23.944  23.949  24.064  24.094  24.192  35.574
141.335
 --------------------------------------------------------------
 
          Ground-State Mulliken Net Atomic Charges

     Atom                 Charge (a.u.)
  ----------------------------------------
      1 C                     0.218301
      2 C                    -0.583935
      3 C                    -0.017317
      4 C                    -0.425791
      5 C                    -0.161971
      6 C                    -0.150603
      7 Si                    0.960994
      8 C                    -0.702379
      9 N                    -0.804191
     10 C                    -0.689589
     11 H                     0.173229
     12 H                     0.141149
     13 H                     0.154969
     14 H                     0.163210
     15 H                     0.156288
     16 H                     0.168670
     17 H                     0.173571
     18 H                     0.181256
     19 H                     0.271793
     20 H                     0.263968
     21 H                     0.176021
     22 H                     0.174062
     23 H                     0.158294
  ----------------------------------------
  Sum of atomic charges =     0.000000

 -----------------------------------------------------------------
                    Cartesian Multipole Moments
 -----------------------------------------------------------------
    Charge (ESU x 10^10)
                 0.0000
    Dipole Moment (Debye)
         X       0.6045      Y       0.1010      Z      -0.5626
       Tot       0.8319
    Quadrupole Moments (Debye-Ang)
        XX     -62.3363     XY      -1.3866     YY     -67.0718
        XZ      -1.3301     YZ       1.5363     ZZ     -70.6736
    Octopole Moments (Debye-Ang^2)
       XXX       2.1747    XXY      -9.9194    XYY      -5.1174
       YYY      -2.5189    XXZ      -2.8990    XYZ       4.6127
       YYZ      -0.3593    XZZ      10.2371    YZZ      -4.9703
       ZZZ      -9.8766
    Hexadecapole Moments (Debye-Ang^3)
      XXXX   -1650.8925   XXXY     -40.8701   XXYY    -374.8165
      XYYY     -14.6947   YYYY    -580.3787   XXXZ     -19.3076
      XXYZ      14.6487   XYYZ      -3.8750   YYYZ      17.0339
      XXZZ    -382.1351   XYZZ      -8.1448   YYZZ    -147.7301
      XZZZ     -16.3138   YZZZ      23.9865   ZZZZ    -311.9530
 -----------------------------------------------------------------
 Calculating analytic gradient of the SCF energy
 Gradient of SCF Energy
            1           2           3           4           5           6
    1  -0.0004796  -0.0006588  -0.0004125   0.0005489   0.0008294   0.0002119
    2   0.0006558  -0.0004468  -0.0006944  -0.0006049  -0.0002231   0.0009052
    3  -0.0003444  -0.0000929   0.0001627   0.0000314  -0.0000613  -0.0000004
            7           8           9          10          11          12
    1   0.0000953  -0.0000784  -0.0010936   0.0000504   0.0000032   0.0000076
    2   0.0010563   0.0000800  -0.0019996  -0.0003357   0.0000897   0.0000105
    3   0.0004520  -0.0003267   0.0007539   0.0001769   0.0001138  -0.0000138
           13          14          15          16          17          18
    1   0.0000699   0.0000152   0.0000982   0.0001566  -0.0001176  -0.0000103
    2  -0.0001037  -0.0000028   0.0000712   0.0001417   0.0000382  -0.0000078
    3  -0.0000077  -0.0000250  -0.0000532  -0.0001055  -0.0000125  -0.0000374
           19          20          21          22          23
    1   0.0004635   0.0003571   0.0002217  -0.0002458  -0.0000324
    2   0.0006754   0.0007077   0.0000988  -0.0000886  -0.0000231
    3  -0.0002290  -0.0004066   0.0001518  -0.0001289   0.0000028
 Max gradient component =       2.000E-03
 RMS gradient           =       4.431E-04
 Gradient time:  CPU 81.36 s  wall 46.03 s
 Geometry Optimization Parameters
   NAtoms,    NIC,     NZ,  NCons,   NDum,   NFix, NCnnct, MaxDiis
       23     162       0       0       0       0       0       0

 Cartesian Hessian Update
 Hessian Updated using BFGS Update


** GEOMETRY OPTIMIZATION IN DELOCALIZED INTERNAL COORDINATES **
   Searching for a Minimum

   Optimization Cycle:   3

                       Coordinates (Angstroms)
     ATOM                X               Y               Z
      1  C        -1.1290049373   -1.1834779854    0.0154238366
      2  C        -0.4135419678    0.0163621021   -0.0342257311
      3  C        -1.1382719221    1.2102729876   -0.0425302706
      4  C        -2.5252111948    1.2101360607    0.0004338652
      5  C        -3.2151883189    0.0075245170    0.0489525983
      6  C        -2.5152639170   -1.1908710770    0.0562570088
      7  Si        1.4652301037   -0.0076968849   -0.0390659010
      8  C         2.1540823079   -0.2982610272    1.6746530705
      9  N         1.9133080206   -1.3904053826   -0.9884015686
     10  C         2.0975110992    1.6410586323   -0.6740669575
     11  H        -0.5815711178   -2.1241437184    0.0184435502
     12  H        -0.6101373229    2.1610565764   -0.0886092510
     13  H        -3.0734900049    2.1477245963   -0.0085530168
     14  H        -4.3026962888    0.0040667246    0.0798428121
     15  H        -3.0565576913   -2.1320377218    0.0918195418
     16  H         3.2482772372   -0.3853895465    1.6564828807
     17  H         1.8978554788    0.5290460993    2.3439726787
     18  H         1.7452328297   -1.2183585646    2.1041647413
     19  H         2.8561047718   -1.7539977348   -0.9445863669
     20  H         1.5402846213   -1.4988230417   -1.9227651772
     21  H         3.1873666670    1.6120153307   -0.7969833766
     22  H         1.6550693278    1.9003914516   -1.6423506290
     23  H         1.8699721530    2.4524473981    0.0264605519
   Point Group: c1    Number of degrees of freedom:    63


   Energy is   -656.780717673

 Hessian Updated using BFGS Update

 56 Hessian modes will be used to form the next step
  Hessian Eigenvalues:
     0.001676    0.002951    0.003585    0.013069    0.013919    0.014678
     0.021671    0.022094    0.022267    0.022590    0.022854    0.022869
     0.022869    0.022942    0.049446    0.053041    0.053344    0.054775
     0.055028    0.055368    0.067444    0.146587    0.153546    0.159982
     0.159992    0.159998    0.160225    0.161371    0.166349    0.203768
     0.207277    0.211891    0.219804    0.220342    0.234792    0.253072
     0.304273    0.341964    0.342197    0.342548    0.343207    0.343633
     0.344301    0.349422    0.350240    0.350424    0.350711    0.351217
     0.413602    0.414740    0.448309    0.449339    0.451509    0.459572
     0.461818    0.520601

 Minimum Search - Taking Simple RFO Step
 Searching for Lamda that Minimizes Along All modes
 Value Taken    Lamda =  -0.00032699
 Calculated Step too Large.  Step scaled by  0.886343
 Step Taken.  Stepsize is  0.300000

                             Maximum     Tolerance    Cnvgd?
         Gradient           0.001439      0.000001      NO
         Displacement       0.181758      0.000010      NO
         Energy change     -0.000170      0.000000      NO


 New Cartesian Coordinates Obtained by Inverse Iteration

 Displacement from previous Coordinates is:  0.677460
 ----------------------------------------------------------------
             Standard Nuclear Orientation (Angstroms)
    I     Atom           X                Y                Z
 ----------------------------------------------------------------
    1      C      -1.1169842192    -1.1745881630     0.0800240024
    2      C      -0.4111918811     0.0266256673    -0.0388500365
    3      C      -1.1443842471     1.2135420552    -0.1138763008
    4      C      -2.5322334458     1.2047414340    -0.0687480477
    5      C      -3.2121622272     0.0008556528     0.0500021059
    6      C      -2.5031658127    -1.1910558480     0.1246275883
    7      Si      1.4687627998     0.0045590180    -0.0481236888
    8      C       2.1477312175    -0.3433648895     1.6595549614
    9      N       1.9196374023    -1.3446016010    -1.0354388951
   10      C       2.1023457875     1.6722314340    -0.6298516389
   11      H      -0.5613093318    -2.1094748675     0.1312513089
   12      H      -0.6222865857     2.1633735270    -0.2139089246
   13      H      -3.0896640680     2.1349817762    -0.1308024287
   14      H      -4.2997094504    -0.0095358946     0.0829780216
   15      H      -3.0386772472    -2.1320614607     0.2140195688
   16      H       3.2383276096    -0.4671394578     1.6414822685
   17      H       1.9179792492     0.4763983358     2.3474038366
   18      H       1.7087569090    -1.2587809022     2.0697328823
   19      H       2.8409630134    -1.7554760546    -0.9846882573
   20      H       1.5228951040    -1.4720458308    -1.9561551008
   21      H       3.1874080888     1.6332330692    -0.7850388085
   22      H       1.6406328454     1.9820166416    -1.5734721495
   23      H       1.9056884241     2.4542061502     0.1126466220
 ----------------------------------------------------------------
 Molecular Point Group                 C1    NOp =  1
 Largest Abelian Subgroup              C1    NOp =  1
 Nuclear Repulsion Energy =   592.8803009491 hartrees
 There are       41 alpha and       41 beta electrons
 Applying Cartesian multipole field
    Component          Value
    ---------          -----
     (2,0,0)        1.00000E-11
     (0,2,0)        2.00000E-11
     (0,0,2)       -3.00000E-11
 Nucleus-field energy     =     0.0000000146 hartrees
 Requested basis set is 6-311+G(d,p)
 There are 119 shells and 306 basis functions
 A cutoff of  1.0D-11 yielded   5928 shell pairs
 There are     40748 function pairs (     43426 Cartesian)
 Smallest overlap matrix eigenvalue = 2.05E-06

 Q-Chem warning in module stvman/mkSTV.C, line 295:

 Overlap eigenvalue is smaller than square root of threshold

 Guess MOs from SCF MO coefficient file
 Reading MOs from coefficient file
 Reading MOs from coefficient file

 -----------------------------------------------------------------------
  General SCF calculation program by
  Eric Jon Sundstrom, Paul Horn, Yuezhi Mao, Dmitri Zuev, Alec White,
  David Stuck, Shaama M.S., Shane Yost, Joonho Lee, David Small,
  Daniel Levine, Susi Lehtola, Hugh Burton, Evgeny Epifanovsky
 -----------------------------------------------------------------------
 Exchange:     0.2700 Hartree-Fock + 1.0000 M06
 Correlation:  1.0000 M06
 Using SG-3 standard quadrature grid
 using 4 threads for integral computing
 -------------------------------------------------------
 OpenMP Integral computing Module                
 Release: version 1.0, May 2013, Q-Chem Inc. Pittsburgh 
 -------------------------------------------------------
 -------------------------------------------------------
 OpenMP BLAS3 based DFT computing Module                
 Release: version 1.0, May 2013, Q-Chem Inc. Pittsburgh 
 -------------------------------------------------------
 A restricted SCF calculation will be
 performed using DIIS
 SCF converges when DIIS error is below 1.0e-08
 ---------------------------------------
  Cycle       Energy         DIIS error
 ---------------------------------------
    1    -656.7870058996      1.51e-03  
    2    -656.7804219172      1.63e-04  
    3    -656.7803301203      2.26e-04  
    4    -656.7808974493      3.21e-05  
    5    -656.7809066562      1.78e-05  
    6    -656.7809101401      7.15e-06  
    7    -656.7809107920      1.41e-06  
    8    -656.7809108134      4.08e-07  
    9    -656.7809108151      2.12e-07  
   10    -656.7809108156      7.13e-08  
   11    -656.7809108157      2.52e-08  
   12    -656.7809108157      3.38e-09  Convergence criterion met
 ---------------------------------------
 SCF time:   CPU 264.82s  wall 66.00s 
 SCF   energy in the final basis set =     -656.7809108157
 Total energy in the final basis set =     -656.7809108157
 
 --------------------------------------------------------------
 
                    Orbital Energies (a.u.)
 --------------------------------------------------------------
 
 Alpha MOs
 -- Occupied --
-66.251 -14.352 -10.240 -10.240 -10.238 -10.238 -10.237 -10.223
-10.207 -10.207  -5.358  -3.678  -3.677  -3.677  -0.869  -0.855
 -0.758  -0.757  -0.712  -0.690  -0.614  -0.610  -0.538  -0.499
 -0.491  -0.465  -0.456  -0.432  -0.425  -0.420  -0.402  -0.401
 -0.394  -0.382  -0.369  -0.351  -0.324  -0.308  -0.270  -0.267
 -0.260
 -- Virtual --
 -0.036  -0.022  -0.020  -0.019  -0.016  -0.010  -0.003  -0.002
  0.010   0.024   0.025   0.027   0.031   0.048   0.052   0.055
  0.060   0.064   0.066   0.077   0.086   0.089   0.099   0.104
  0.108   0.109   0.115   0.116   0.126   0.128   0.131   0.136
  0.140   0.149   0.159   0.160   0.162   0.168   0.175   0.178
  0.181   0.189   0.191   0.194   0.195   0.204   0.206   0.210
  0.212   0.217   0.224   0.229   0.236   0.244   0.256   0.257
  0.277   0.286   0.291   0.300   0.314   0.322   0.327   0.332
  0.357   0.361   0.390   0.405   0.438   0.451   0.492   0.504
  0.509   0.515   0.519   0.521   0.523   0.528   0.537   0.550
  0.556   0.573   0.582   0.591   0.602   0.607   0.614   0.621
  0.634   0.643   0.653   0.656   0.673   0.679   0.687   0.697
  0.701   0.713   0.721   0.738   0.749   0.769   0.777   0.790
  0.802   0.810   0.820   0.831   0.849   0.862   0.865   0.870
  0.891   0.904   0.915   0.924   0.933   0.963   0.985   0.997
  1.011   1.030   1.053   1.075   1.077   1.112   1.120   1.140
  1.156   1.193   1.204   1.251   1.267   1.281   1.303   1.333
  1.414   1.456   1.466   1.470   1.486   1.500   1.509   1.542
  1.548   1.553   1.558   1.572   1.578   1.596   1.605   1.616
  1.624   1.639   1.639   1.660   1.690   1.718   1.729   1.735
  1.747   1.770   1.778   1.790   1.796   1.803   1.834   1.844
  1.862   1.915   1.924   1.928   1.938   1.960   1.982   2.002
  2.009   2.029   2.048   2.068   2.075   2.088   2.106   2.174
  2.191   2.214   2.237   2.266   2.281   2.297   2.330   2.333
  2.364   2.390   2.401   2.414   2.443   2.460   2.472   2.480
  2.492   2.503   2.525   2.553   2.580   2.607   2.622   2.627
  2.649   2.651   2.679   2.685   2.688   2.695   2.724   2.740
  2.759   2.779   2.798   2.821   2.826   2.854   2.892   2.895
  2.917   2.947   2.992   3.079   3.099   3.148   3.186   3.250
  3.313   3.344   3.360   3.450   3.480   3.530   3.679   3.687
  3.706   3.715   3.758   3.908   3.949   3.982   4.096   4.110
  4.325   4.703   4.830   5.924  11.678  11.707  11.770  23.539
 23.930  23.935  23.945  23.951  24.063  24.092  24.189  35.577
141.332
 --------------------------------------------------------------
 
          Ground-State Mulliken Net Atomic Charges

     Atom                 Charge (a.u.)
  ----------------------------------------
      1 C                     0.202400
      2 C                    -0.571440
      3 C                     0.052411
      4 C                    -0.471092
      5 C                    -0.155221
      6 C                    -0.176647
      7 Si                    0.974745
      8 C                    -0.702492
      9 N                    -0.813128
     10 C                    -0.696713
     11 H                     0.169299
     12 H                     0.143913
     13 H                     0.154929
     14 H                     0.163209
     15 H                     0.156340
     16 H                     0.167976
     17 H                     0.172816
     18 H                     0.178835
     19 H                     0.275401
     20 H                     0.266633
     21 H                     0.176620
     22 H                     0.169189
     23 H                     0.162016
  ----------------------------------------
  Sum of atomic charges =    -0.000000

 -----------------------------------------------------------------
                    Cartesian Multipole Moments
 -----------------------------------------------------------------
    Charge (ESU x 10^10)
                -0.0000
    Dipole Moment (Debye)
         X       0.5617      Y      -0.0067      Z      -0.5421
       Tot       0.7807
    Quadrupole Moments (Debye-Ang)
        XX     -62.5794     XY      -1.5599     YY     -66.7272
        XZ      -1.2066     YZ       1.1766     ZZ     -70.6980
    Octopole Moments (Debye-Ang^2)
       XXX       0.9412    XXY     -10.4283    XYY      -4.4697
       YYY      -4.7811    XXZ      -2.3252    XYZ       5.5238
       YYZ      -0.5612    XZZ       9.7938    YZZ      -5.1194
       ZZZ      -9.1578
    Hexadecapole Moments (Debye-Ang^3)
      XXXX   -1653.1336   XXXY     -42.3725   XXYY    -373.7837
      XYYY     -18.2302   YYYY    -579.3965   XXXZ     -17.7855
      XXYZ      14.9015   XYYZ      -4.2985   YYYZ      22.3479
      XXZZ    -382.3045   XYZZ      -7.8410   YYZZ    -147.0545
      XZZZ     -14.8294   YZZZ      32.9935   ZZZZ    -312.2417
 -----------------------------------------------------------------
 Calculating analytic gradient of the SCF energy
 Gradient of SCF Energy
            1           2           3           4           5           6
    1  -0.0002728  -0.0005773  -0.0000440   0.0003146   0.0003913   0.0001595
    2   0.0003446  -0.0008238   0.0000573  -0.0000048  -0.0001399   0.0002226
    3  -0.0001618   0.0001216  -0.0000349   0.0000349  -0.0000559   0.0000703
            7           8           9          10          11          12
    1   0.0005528  -0.0002734  -0.0008343  -0.0000088   0.0001925   0.0000903
    2   0.0003874   0.0000311  -0.0003172  -0.0004063   0.0000071  -0.0000337
    3  -0.0000495  -0.0004744   0.0011590  -0.0002149   0.0000320  -0.0000124
           13          14          15          16          17          18
    1  -0.0001212  -0.0000771  -0.0000667   0.0001465  -0.0001008  -0.0000470
    2  -0.0000939  -0.0000082   0.0000452   0.0001074  -0.0000134  -0.0000598
    3   0.0000036  -0.0000258  -0.0001090  -0.0000419   0.0000298   0.0001558
           19          20          21          22          23
    1   0.0000592   0.0005741   0.0000382  -0.0001531   0.0000572
    2   0.0002115   0.0002534   0.0000626   0.0000952   0.0000757
    3  -0.0004602  -0.0002711   0.0000556   0.0000692   0.0001803
 Max gradient component =       1.159E-03
 RMS gradient           =       2.876E-04
 Gradient time:  CPU 81.60 s  wall 47.24 s
 Geometry Optimization Parameters
   NAtoms,    NIC,     NZ,  NCons,   NDum,   NFix, NCnnct, MaxDiis
       23     162       0       0       0       0       0       0

 Cartesian Hessian Update
 Hessian Updated using BFGS Update


** GEOMETRY OPTIMIZATION IN DELOCALIZED INTERNAL COORDINATES **
   Searching for a Minimum

   Optimization Cycle:   4

                       Coordinates (Angstroms)
     ATOM                X               Y               Z
      1  C        -1.1169842192   -1.1745881630    0.0800240024
      2  C        -0.4111918811    0.0266256673   -0.0388500365
      3  C        -1.1443842471    1.2135420552   -0.1138763008
      4  C        -2.5322334458    1.2047414340   -0.0687480477
      5  C        -3.2121622272    0.0008556528    0.0500021059
      6  C        -2.5031658127   -1.1910558480    0.1246275883
      7  Si        1.4687627998    0.0045590180   -0.0481236888
      8  C         2.1477312175   -0.3433648895    1.6595549614
      9  N         1.9196374023   -1.3446016010   -1.0354388951
     10  C         2.1023457875    1.6722314340   -0.6298516389
     11  H        -0.5613093318   -2.1094748675    0.1312513089
     12  H        -0.6222865857    2.1633735270   -0.2139089246
     13  H        -3.0896640680    2.1349817762   -0.1308024287
     14  H        -4.2997094504   -0.0095358946    0.0829780216
     15  H        -3.0386772472   -2.1320614607    0.2140195688
     16  H         3.2383276096   -0.4671394578    1.6414822685
     17  H         1.9179792492    0.4763983358    2.3474038366
     18  H         1.7087569090   -1.2587809022    2.0697328823
     19  H         2.8409630134   -1.7554760546   -0.9846882573
     20  H         1.5228951040   -1.4720458308   -1.9561551008
     21  H         3.1874080888    1.6332330692   -0.7850388085
     22  H         1.6406328454    1.9820166416   -1.5734721495
     23  H         1.9056884241    2.4542061502    0.1126466220
   Point Group: c1    Number of degrees of freedom:    63


   Energy is   -656.780910816

 Hessian Updated using BFGS Update

 58 Hessian modes will be used to form the next step
  Hessian Eigenvalues:
     0.001671    0.003009    0.003612    0.011533    0.013235    0.014150
     0.021678    0.022096    0.022270    0.022590    0.022854    0.022868
     0.022870    0.022941    0.049488    0.053031    0.053343    0.054773
     0.055012    0.055385    0.067648    0.147678    0.155411    0.159985
     0.159994    0.159998    0.159999    0.160089    0.160438    0.162246
     0.166333    0.203813    0.207258    0.211310    0.219868    0.220407
     0.235381    0.250785    0.307045    0.341982    0.342375    0.342512
     0.343210    0.343579    0.344340    0.349422    0.350266    0.350423
     0.350686    0.351409    0.413612    0.414854    0.448154    0.449751
     0.451519    0.459631    0.461764    0.515339

 Minimum Search - Taking Simple RFO Step
 Searching for Lamda that Minimizes Along All modes
 Value Taken    Lamda =  -0.00009429
 Step Taken.  Stepsize is  0.178021

                             Maximum     Tolerance    Cnvgd?
         Gradient           0.000649      0.000001      NO
         Displacement       0.096686      0.000010      NO
         Energy change     -0.000193      0.000000      NO


 New Cartesian Coordinates Obtained by Inverse Iteration

 Displacement from previous Coordinates is:  0.366175
 ----------------------------------------------------------------
             Standard Nuclear Orientation (Angstroms)
    I     Atom           X                Y                Z
 ----------------------------------------------------------------
    1      C      -1.1089400729    -1.1659207659     0.1138361518
    2      C      -0.4095556372     0.0354093631    -0.0420676267
    3      C      -1.1497354187     1.2153468708    -0.1510604623
    4      C      -2.5380307149     1.1996298274    -0.1048312542
    5      C      -3.2110000156    -0.0038951306     0.0512977640
    6      C      -2.4949559865    -1.1894010025     0.1611609724
    7      Si      1.4709234691     0.0127442873    -0.0538950613
    8      C       2.1455123954    -0.3683898672     1.6495896311
    9      N       1.9229864523    -1.3172905487    -1.0632970429
   10      C       2.1069908658     1.6897731461    -0.6050800635
   11      H      -0.5487906575    -2.0964371648     0.1905353839
   12      H      -0.6333417658     2.1649043486    -0.2787703450
   13      H      -3.1006353054     2.1244787190    -0.1945029313
   14      H      -4.2983746898    -0.0196039084     0.0862784345
   15      H      -3.0249309558    -2.1301966579     0.2808345218
   16      H       3.2322280897    -0.5209052534     1.6290477365
   17      H       1.9378034528     0.4488286445     2.3473335899
   18      H       1.6843249530    -1.2771936542     2.0498515763
   19      H       2.8296026029    -1.7574227432    -1.0069950730
   20      H       1.5049282933    -1.4620639673    -1.9711428455
   21      H       3.1929322666     1.6515318477    -0.7534856640
   22      H       1.6547543010     2.0148814122    -1.5479086893
   23      H       1.9046640127     2.4598319893     0.1480401864
 ----------------------------------------------------------------
 Molecular Point Group                 C1    NOp =  1
 Largest Abelian Subgroup              C1    NOp =  1
 Nuclear Repulsion Energy =   592.8133634837 hartrees
 There are       41 alpha and       41 beta electrons
 Applying Cartesian multipole field
    Component          Value
    ---------          -----
     (2,0,0)        1.00000E-11
     (0,2,0)        2.00000E-11
     (0,0,2)       -3.00000E-11
 Nucleus-field energy     =     0.0000000146 hartrees
 Requested basis set is 6-311+G(d,p)
 There are 119 shells and 306 basis functions
 A cutoff of  1.0D-11 yielded   5927 shell pairs
 There are     40747 function pairs (     43426 Cartesian)
 Smallest overlap matrix eigenvalue = 2.07E-06

 Q-Chem warning in module stvman/mkSTV.C, line 295:

 Overlap eigenvalue is smaller than square root of threshold

 Guess MOs from SCF MO coefficient file
 Reading MOs from coefficient file
 Reading MOs from coefficient file

 -----------------------------------------------------------------------
  General SCF calculation program by
  Eric Jon Sundstrom, Paul Horn, Yuezhi Mao, Dmitri Zuev, Alec White,
  David Stuck, Shaama M.S., Shane Yost, Joonho Lee, David Small,
  Daniel Levine, Susi Lehtola, Hugh Burton, Evgeny Epifanovsky
 -----------------------------------------------------------------------
 Exchange:     0.2700 Hartree-Fock + 1.0000 M06
 Correlation:  1.0000 M06
 Using SG-3 standard quadrature grid
 using 4 threads for integral computing
 -------------------------------------------------------
 OpenMP Integral computing Module                
 Release: version 1.0, May 2013, Q-Chem Inc. Pittsburgh 
 -------------------------------------------------------
 -------------------------------------------------------
 OpenMP BLAS3 based DFT computing Module                
 Release: version 1.0, May 2013, Q-Chem Inc. Pittsburgh 
 -------------------------------------------------------
 A restricted SCF calculation will be
 performed using DIIS
 SCF converges when DIIS error is below 1.0e-08
 ---------------------------------------
  Cycle       Energy         DIIS error
 ---------------------------------------
    1    -656.7886264741      8.36e-04  
    2    -656.7808547717      8.19e-05  
    3    -656.7808707671      9.57e-05  
    4    -656.7809697386      1.97e-05  
    5    -656.7809733444      8.86e-06  
    6    -656.7809742405      3.50e-06  
    7    -656.7809743940      9.49e-07  
    8    -656.7809744041      2.31e-07  
    9    -656.7809744048      7.12e-08  
   10    -656.7809744048      2.25e-08  
   11    -656.7809744048      1.17e-08  
   12    -656.7809744048      3.10e-09  Convergence criterion met
 ---------------------------------------
 SCF time:   CPU 260.11s  wall 65.00s 
 SCF   energy in the final basis set =     -656.7809744048
 Total energy in the final basis set =     -656.7809744048
 
 --------------------------------------------------------------
 
                    Orbital Energies (a.u.)
 --------------------------------------------------------------
 
 Alpha MOs
 -- Occupied --
-66.251 -14.351 -10.240 -10.240 -10.238 -10.238 -10.237 -10.223
-10.207 -10.207  -5.358  -3.678  -3.677  -3.677  -0.869  -0.855
 -0.758  -0.757  -0.711  -0.689  -0.614  -0.610  -0.538  -0.499
 -0.492  -0.465  -0.456  -0.432  -0.425  -0.420  -0.402  -0.401
 -0.394  -0.382  -0.369  -0.351  -0.324  -0.308  -0.270  -0.267
 -0.259
 -- Virtual --
 -0.036  -0.022  -0.020  -0.019  -0.015  -0.010  -0.003  -0.002
  0.010   0.024   0.025   0.027   0.031   0.048   0.052   0.055
  0.060   0.064   0.066   0.077   0.087   0.089   0.099   0.104
  0.108   0.109   0.115   0.117   0.126   0.128   0.131   0.135
  0.141   0.149   0.158   0.159   0.162   0.168   0.176   0.179
  0.182   0.190   0.192   0.195   0.196   0.204   0.206   0.209
  0.211   0.217   0.224   0.230   0.235   0.244   0.256   0.262
  0.275   0.285   0.291   0.300   0.314   0.321   0.326   0.333
  0.355   0.362   0.390   0.404   0.437   0.453   0.493   0.505
  0.509   0.515   0.520   0.521   0.522   0.528   0.536   0.549
  0.557   0.573   0.582   0.592   0.602   0.608   0.614   0.620
  0.635   0.645   0.653   0.656   0.674   0.679   0.687   0.697
  0.701   0.713   0.721   0.738   0.750   0.769   0.775   0.788
  0.803   0.809   0.820   0.831   0.849   0.862   0.865   0.870
  0.889   0.905   0.918   0.924   0.933   0.965   0.985   0.997
  1.012   1.031   1.053   1.076   1.076   1.112   1.119   1.140
  1.159   1.195   1.204   1.249   1.266   1.279   1.303   1.333
  1.418   1.456   1.467   1.469   1.486   1.499   1.509   1.542
  1.549   1.554   1.557   1.573   1.579   1.598   1.606   1.620
  1.625   1.639   1.640   1.661   1.691   1.717   1.727   1.735
  1.747   1.770   1.777   1.789   1.797   1.802   1.832   1.839
  1.862   1.914   1.923   1.928   1.938   1.960   1.984   2.006
  2.011   2.033   2.050   2.069   2.075   2.088   2.110   2.175
  2.190   2.214   2.237   2.267   2.281   2.297   2.330   2.333
  2.363   2.388   2.395   2.411   2.438   2.460   2.472   2.480
  2.492   2.500   2.526   2.552   2.581   2.609   2.622   2.627
  2.649   2.651   2.680   2.687   2.692   2.696   2.726   2.744
  2.760   2.784   2.798   2.821   2.825   2.855   2.892   2.897
  2.915   2.948   2.996   3.078   3.098   3.150   3.186   3.249
  3.313   3.346   3.359   3.450   3.480   3.529   3.680   3.687
  3.706   3.716   3.758   3.908   3.946   3.982   4.096   4.110
  4.325   4.709   4.829   5.923  11.679  11.706  11.772  23.539
 23.929  23.934  23.946  23.952  24.062  24.091  24.188  35.579
141.331
 --------------------------------------------------------------
 
          Ground-State Mulliken Net Atomic Charges

     Atom                 Charge (a.u.)
  ----------------------------------------
      1 C                     0.177632
      2 C                    -0.558414
      3 C                     0.091766
      4 C                    -0.484629
      5 C                    -0.155236
      6 C                    -0.187128
      7 Si                    0.982014
      8 C                    -0.704415
      9 N                    -0.821223
     10 C                    -0.696975
     11 H                     0.166697
     12 H                     0.144494
     13 H                     0.154892
     14 H                     0.163292
     15 H                     0.156298
     16 H                     0.167315
     17 H                     0.172009
     18 H                     0.177507
     19 H                     0.278321
     20 H                     0.268868
     21 H                     0.176556
     22 H                     0.167368
     23 H                     0.162989
  ----------------------------------------
  Sum of atomic charges =    -0.000000

 -----------------------------------------------------------------
                    Cartesian Multipole Moments
 -----------------------------------------------------------------
    Charge (ESU x 10^10)
                -0.0000
    Dipole Moment (Debye)
         X       0.5164      Y      -0.0820      Z      -0.5200
       Tot       0.7374
    Quadrupole Moments (Debye-Ang)
        XX     -62.7720     XY      -1.6654     YY     -66.5004
        XZ      -1.0924     YZ       1.0083     ZZ     -70.7436
    Octopole Moments (Debye-Ang^2)
       XXX      -0.0140    XXY     -10.7306    XYY      -4.0521
       YYY      -6.2641    XXZ      -1.7822    XYZ       5.9865
       YYZ      -0.7326    XZZ       9.3264    YZZ      -5.2617
       ZZZ      -8.6201
    Hexadecapole Moments (Debye-Ang^3)
      XXXX   -1655.4948   XXXY     -43.1620   XXYY    -373.3100
      XYYY     -20.4390   YYYY    -578.1322   XXXZ     -16.2162
      XXYZ      14.8721   XYYZ      -4.6439   YYYZ      25.3573
      XXZZ    -382.9867   XYZZ      -7.5694   YYZZ    -146.5052
      XZZZ     -13.5250   YZZZ      37.5628   ZZZZ    -313.2985
 -----------------------------------------------------------------
 Calculating analytic gradient of the SCF energy
 Gradient of SCF Energy
            1           2           3           4           5           6
    1  -0.0000845  -0.0003098   0.0000233   0.0000913   0.0001071   0.0001037
    2   0.0000923  -0.0005128   0.0002567   0.0001271  -0.0000291  -0.0001001
    3   0.0000457   0.0000710  -0.0000509  -0.0000199  -0.0000452   0.0000357
            7           8           9          10          11          12
    1   0.0004804  -0.0001894  -0.0005129  -0.0000707   0.0001670   0.0000638
    2   0.0001332  -0.0000783   0.0001662  -0.0001297  -0.0000059  -0.0000394
    3  -0.0002989  -0.0002992   0.0010478  -0.0001571  -0.0000174   0.0000180
           13          14          15          16          17          18
    1  -0.0001271  -0.0000544  -0.0000900   0.0000646  -0.0000722  -0.0000416
    2  -0.0000622  -0.0000141   0.0000189   0.0000412  -0.0000071  -0.0000402
    3  -0.0000003  -0.0000188  -0.0000774   0.0000625   0.0000310   0.0001010
           19          20          21          22          23
    1  -0.0000092   0.0004537  -0.0000633   0.0000248   0.0000456
    2  -0.0000020   0.0000230  -0.0000027   0.0001315   0.0000333
    3  -0.0004259  -0.0002197  -0.0000585   0.0001378   0.0001388
 Max gradient component =       1.048E-03
 RMS gradient           =       2.092E-04
 Gradient time:  CPU 80.83 s  wall 45.87 s
 Geometry Optimization Parameters
   NAtoms,    NIC,     NZ,  NCons,   NDum,   NFix, NCnnct, MaxDiis
       23     162       0       0       0       0       0       0

 Cartesian Hessian Update
 Hessian Updated using BFGS Update


** GEOMETRY OPTIMIZATION IN DELOCALIZED INTERNAL COORDINATES **
   Searching for a Minimum

   Optimization Cycle:   5

                       Coordinates (Angstroms)
     ATOM                X               Y               Z
      1  C        -1.1089400729   -1.1659207659    0.1138361518
      2  C        -0.4095556372    0.0354093631   -0.0420676267
      3  C        -1.1497354187    1.2153468708   -0.1510604623
      4  C        -2.5380307149    1.1996298274   -0.1048312542
      5  C        -3.2110000156   -0.0038951306    0.0512977640
      6  C        -2.4949559865   -1.1894010025    0.1611609724
      7  Si        1.4709234691    0.0127442873   -0.0538950613
      8  C         2.1455123954   -0.3683898672    1.6495896311
      9  N         1.9229864523   -1.3172905487   -1.0632970429
     10  C         2.1069908658    1.6897731461   -0.6050800635
     11  H        -0.5487906575   -2.0964371648    0.1905353839
     12  H        -0.6333417658    2.1649043486   -0.2787703450
     13  H        -3.1006353054    2.1244787190   -0.1945029313
     14  H        -4.2983746898   -0.0196039084    0.0862784345
     15  H        -3.0249309558   -2.1301966579    0.2808345218
     16  H         3.2322280897   -0.5209052534    1.6290477365
     17  H         1.9378034528    0.4488286445    2.3473335899
     18  H         1.6843249530   -1.2771936542    2.0498515763
     19  H         2.8296026029   -1.7574227432   -1.0069950730
     20  H         1.5049282933   -1.4620639673   -1.9711428455
     21  H         3.1929322666    1.6515318477   -0.7534856640
     22  H         1.6547543010    2.0148814122   -1.5479086893
     23  H         1.9046640127    2.4598319893    0.1480401864
   Point Group: c1    Number of degrees of freedom:    63


   Energy is   -656.780974405

 Hessian Updated using BFGS Update

 59 Hessian modes will be used to form the next step
  Hessian Eigenvalues:
     0.001490    0.002909    0.003582    0.009137    0.013254    0.014189
     0.021686    0.022099    0.022274    0.022592    0.022855    0.022867
     0.022871    0.022917    0.049464    0.053129    0.053351    0.054743
     0.054920    0.055358    0.068470    0.148524    0.156356    0.159484
     0.159986    0.159995    0.159998    0.159999    0.160119    0.160358
     0.161152    0.166392    0.203804    0.207556    0.210631    0.219956
     0.220238    0.234600    0.248087    0.304446    0.341854    0.342189
     0.342509    0.343218    0.343786    0.344199    0.349435    0.350207
[...]
 C         -0.001 -0.001  0.000    0.002  0.002  0.002    0.004  0.010 -0.000
 C          0.005  0.000  0.000   -0.003 -0.001  0.000   -0.011 -0.005 -0.000
 C         -0.006 -0.001  0.000    0.002 -0.002 -0.000    0.015 -0.000 -0.000
 C         -0.001 -0.000 -0.000    0.002  0.006  0.000    0.002  0.012  0.000
 C          0.006 -0.002 -0.000   -0.004  0.001 -0.000   -0.019  0.002  0.001
 Si        -0.003 -0.003 -0.002   -0.001 -0.003 -0.004   -0.008  0.002  0.002
 C         -0.042 -0.022  0.011    0.025 -0.027 -0.023   -0.026  0.006  0.016
 N          0.002 -0.001 -0.001    0.001 -0.000 -0.000    0.003 -0.000  0.000
 C          0.015 -0.012 -0.032   -0.029  0.010 -0.030   -0.044  0.023  0.007
 H          0.001  0.004  0.003    0.017  0.007  0.004    0.004 -0.011 -0.001
 H         -0.008  0.008 -0.008   -0.007  0.001 -0.005    0.003 -0.015  0.004
 H          0.007  0.007  0.001   -0.003 -0.006  0.001   -0.032 -0.031 -0.000
 H         -0.001  0.014  0.000    0.003 -0.018  0.000    0.003 -0.061 -0.001
 H         -0.016  0.010 -0.000    0.020 -0.012 -0.001    0.045 -0.036 -0.002
 H          0.026  0.213  0.316    0.081  0.380 -0.064   -0.033 -0.132  0.153
 H          0.514  0.250 -0.107   -0.013 -0.242  0.172    0.184  0.225 -0.137
 H          0.036 -0.154 -0.345   -0.396  0.256  0.199    0.225 -0.192 -0.235
 H          0.001 -0.003  0.011    0.001  0.000  0.003   -0.003 -0.010  0.000
 H         -0.012  0.014  0.005   -0.003  0.006  0.001   -0.003  0.015  0.002
 H          0.049 -0.051  0.389    0.017  0.196  0.360   -0.041  0.272 -0.106
 H         -0.357  0.053  0.175   -0.080 -0.241 -0.117    0.352 -0.315 -0.335
 H          0.119  0.148 -0.115    0.454 -0.069  0.180    0.313 -0.262  0.330
 TransDip   0.011  0.041  0.037    0.002  0.034  0.064    0.067 -0.023 -0.029

 Mode:                46                     47                     48
 Frequency:      1448.13                1508.04                1552.15
 Force Cnst:      2.7110                 2.9116                 1.5878
 Red. Mass:       2.1941                 2.1730                 1.1186
 IR Active:          YES                    YES                    YES
 IR Intens:       10.746                  0.321                 78.910
 Raman Active:       YES                    YES                    YES
               X      Y      Z        X      Y      Z        X      Y      Z
 C         -0.091  0.061  0.004   -0.088 -0.106 -0.000   -0.003  0.000  0.000
 C         -0.001 -0.139 -0.003    0.130 -0.000 -0.003   -0.000 -0.001 -0.000
 C          0.097  0.058 -0.002   -0.084  0.102  0.004    0.003 -0.001  0.000
 C         -0.161 -0.008  0.004   -0.097 -0.105  0.001    0.000  0.003  0.000
 C          0.001 -0.107 -0.002    0.100 -0.010 -0.003   -0.001 -0.004 -0.000
 C          0.161 -0.007 -0.005   -0.096  0.112  0.005    0.003  0.001 -0.000
 Si        -0.001  0.005  0.000   -0.007 -0.000 -0.000   -0.001  0.006  0.004
 C         -0.003  0.001  0.002   -0.002 -0.000  0.001    0.001  0.001  0.001
 N         -0.002  0.002  0.002   -0.000  0.001 -0.001    0.030 -0.052 -0.069
 C         -0.009  0.003  0.001    0.003 -0.000  0.000   -0.000 -0.001 -0.000
 H          0.079  0.184  0.005    0.450  0.207  0.001    0.004  0.004 -0.002
 H         -0.117  0.195  0.008    0.440 -0.177 -0.014   -0.007  0.004 -0.000
 H          0.332  0.312 -0.004    0.413  0.193 -0.008   -0.003  0.001  0.000
 H         -0.010  0.571  0.012    0.123  0.027 -0.003   -0.002  0.009  0.000
 H         -0.352  0.303  0.016    0.413 -0.164 -0.016   -0.004  0.006  0.000
 H         -0.007 -0.030  0.003   -0.001  0.003  0.002   -0.002 -0.019 -0.022
 H          0.001  0.024 -0.018    0.009  0.005 -0.002   -0.030  0.002 -0.009
 H          0.032 -0.022 -0.016    0.001 -0.004 -0.007    0.007 -0.001  0.006
 H         -0.006 -0.006 -0.012    0.001  0.002  0.011    0.142  0.186  0.658
 H          0.015 -0.010 -0.007   -0.008  0.003  0.003   -0.539  0.405  0.216
 H         -0.007  0.091 -0.022   -0.000 -0.021 -0.008    0.000 -0.001  0.005
 H          0.087 -0.077 -0.080   -0.014  0.015  0.014   -0.004 -0.002  0.001
 H          0.087 -0.061  0.078   -0.032  0.006 -0.013    0.002 -0.002  0.001
 TransDip   0.019  0.103 -0.006    0.018  0.001 -0.002   -0.122  0.147  0.211

 Mode:                49                     50                     51
 Frequency:      1620.10                1645.56                3009.48
 Force Cnst:      9.1917                 9.4338                 5.5291
 Red. Mass:       5.9438                 5.9130                 1.0361
 IR Active:          YES                    YES                    YES
 IR Intens:        0.656                  2.156                  5.623
 Raman Active:       YES                    YES                    YES
               X      Y      Z        X      Y      Z        X      Y      Z
 C          0.113  0.183  0.001   -0.300 -0.081  0.006   -0.000 -0.000 -0.000
 C          0.012 -0.274 -0.006    0.185 -0.005 -0.004   -0.000 -0.000  0.000
 C         -0.123  0.189  0.007   -0.298  0.077  0.009    0.000  0.000 -0.000
 C         -0.074 -0.232 -0.002    0.296  0.091 -0.006   -0.000  0.000  0.000
 C         -0.000  0.406  0.008   -0.156 -0.004  0.004   -0.000  0.000 -0.000
 C          0.067 -0.219 -0.007    0.306 -0.082 -0.010    0.000 -0.000 -0.000
 Si        -0.001  0.006  0.000   -0.008  0.000  0.000    0.000  0.001 -0.000
 C         -0.001 -0.001 -0.000   -0.001  0.000  0.000   -0.000 -0.000 -0.000
 N         -0.002 -0.003 -0.002   -0.000  0.001  0.001   -0.000 -0.000 -0.000
 C          0.005 -0.002 -0.000    0.001  0.000 -0.000   -0.016 -0.048  0.005
 H         -0.294 -0.061  0.000    0.253  0.270  0.004   -0.001  0.001  0.000
 H          0.332 -0.060 -0.009    0.259 -0.245 -0.011   -0.002 -0.002  0.000
 H          0.248 -0.064 -0.008   -0.250 -0.252  0.002   -0.000  0.000 -0.000
 H          0.015 -0.475 -0.009   -0.176  0.002  0.006   -0.000  0.000 -0.000
 H         -0.213 -0.085  0.004   -0.260  0.253  0.012    0.000  0.000  0.000
 H         -0.002 -0.006 -0.009   -0.000  0.000  0.004    0.003 -0.001 -0.000
 H         -0.010  0.001 -0.002    0.005  0.001  0.000   -0.000  0.000  0.001
 H          0.007 -0.001  0.011    0.002 -0.002 -0.002   -0.001 -0.002  0.001
 H          0.003  0.008  0.032   -0.002 -0.003 -0.010    0.001 -0.001 -0.000
 H         -0.017  0.016  0.005    0.007 -0.007 -0.003   -0.000 -0.000 -0.001
 H          0.003  0.011 -0.005    0.001 -0.000 -0.002    0.553 -0.022 -0.050
 H         -0.007  0.002  0.007   -0.003  0.000  0.001   -0.222  0.217 -0.472
 H         -0.013 -0.002 -0.004   -0.006 -0.002  0.000   -0.146  0.357  0.470
 TransDip   0.001  0.026  0.004   -0.047  0.002  0.001   -0.027 -0.071  0.004

 Mode:                52                     53                     54
 Frequency:      3013.52                3096.26                3100.50
 Force Cnst:      5.5429                 6.2119                 6.2304
 Red. Mass:       1.0359                 1.0998                 1.1000
 IR Active:          YES                    YES                    YES
 IR Intens:        7.280                  9.535                 13.335
 Raman Active:       YES                    YES                    YES
               X      Y      Z        X      Y      Z        X      Y      Z
 C          0.000 -0.000 -0.000   -0.000  0.000  0.000   -0.000  0.000 -0.000
 C         -0.000  0.000 -0.000   -0.000 -0.000  0.000    0.000 -0.000  0.000
 C          0.000  0.000 -0.000    0.001  0.002  0.000   -0.000 -0.000 -0.000
 C         -0.000  0.000  0.000    0.000 -0.000  0.000   -0.000  0.000 -0.000
 C         -0.000 -0.000 -0.000    0.000 -0.000  0.000   -0.000  0.000 -0.000
 C         -0.000 -0.000  0.000    0.000  0.000 -0.000   -0.000 -0.000  0.000
 Si         0.000 -0.000  0.001    0.000 -0.000 -0.001   -0.001  0.000  0.000
 C         -0.025  0.017 -0.040   -0.009  0.003  0.005   -0.079  0.013  0.043
 N         -0.000  0.000 -0.000   -0.000  0.000  0.000    0.000 -0.000 -0.000
 C         -0.000  0.000 -0.000    0.031 -0.023 -0.082    0.002  0.001  0.012
 H         -0.001  0.002  0.000    0.001 -0.002 -0.000    0.002 -0.004 -0.000
 H         -0.001 -0.001 -0.000   -0.012 -0.021 -0.000    0.001  0.001  0.000
 H          0.000 -0.000 -0.000   -0.002  0.004  0.000    0.000 -0.000  0.000
 H          0.000 -0.000 -0.000   -0.000  0.000 -0.000    0.001  0.000 -0.000
 H          0.000  0.000  0.000    0.000  0.000 -0.000    0.001  0.001  0.000
 H          0.637 -0.100 -0.051    0.083 -0.013 -0.004    0.732 -0.121 -0.032
 H         -0.097  0.363  0.393    0.010 -0.048 -0.052    0.072 -0.355 -0.399
 H         -0.245 -0.457  0.121    0.010  0.025 -0.005    0.148  0.322 -0.084
 H          0.001 -0.001 -0.001    0.001  0.000 -0.000    0.000 -0.001 -0.002
 H          0.001  0.000 -0.001   -0.000  0.001 -0.000    0.001 -0.001  0.000
 H         -0.001  0.000 -0.000   -0.390 -0.001  0.020   -0.008  0.001  0.003
 H          0.001  0.000  0.002    0.186 -0.197  0.376   -0.038  0.042 -0.082
 H          0.001 -0.002 -0.003   -0.174  0.480  0.592    0.020 -0.054 -0.065
 TransDip  -0.060  0.025 -0.057    0.033 -0.022 -0.091   -0.099  0.021  0.058

 Mode:                55                     56                     57
 Frequency:      3102.14                3110.76                3130.37
 Force Cnst:      6.2406                 6.2741                 6.2736
 Red. Mass:       1.1007                 1.1004                 1.0866
 IR Active:          YES                    YES                    YES
 IR Intens:       13.298                  8.400                  3.064
 Raman Active:       YES                    YES                    YES
               X      Y      Z        X      Y      Z        X      Y      Z
 C          0.000 -0.000 -0.000   -0.001  0.001  0.000    0.039 -0.065 -0.003
 C          0.000  0.000  0.000    0.000  0.000  0.000    0.002  0.001 -0.000
 C         -0.001 -0.001  0.000    0.000  0.001 -0.000    0.008  0.015 -0.000
 C         -0.000  0.000  0.000   -0.000 -0.000 -0.000    0.006 -0.010 -0.000
 C         -0.000 -0.000 -0.000   -0.000  0.000  0.000   -0.015 -0.000  0.000
 C         -0.000  0.000 -0.000   -0.000 -0.000 -0.000    0.012  0.026  0.000
 Si        -0.001  0.000 -0.000   -0.000 -0.001 -0.000    0.000 -0.000 -0.000
 C         -0.006  0.000  0.003   -0.026 -0.085 -0.022   -0.001 -0.001 -0.000
 N          0.000 -0.000  0.000    0.000  0.000  0.000    0.000  0.000 -0.000
 C         -0.080  0.025 -0.037    0.001 -0.000 -0.001   -0.000  0.000  0.000
 H         -0.003  0.004  0.000    0.010 -0.017 -0.001   -0.451  0.754  0.035
 H          0.009  0.014 -0.001   -0.004 -0.006 -0.000   -0.094 -0.172  0.000
 H          0.002 -0.003 -0.000   -0.000  0.001  0.000   -0.075  0.125  0.004
 H          0.001 -0.000 -0.000    0.000  0.000  0.000    0.179  0.003 -0.005
 H         -0.000 -0.001 -0.000    0.002  0.004 -0.000   -0.174 -0.312 -0.002
 H          0.052 -0.009 -0.002    0.086 -0.032 -0.009    0.004 -0.001 -0.001
 H          0.004 -0.023 -0.026   -0.109  0.406  0.476   -0.001  0.005  0.006
 H          0.013  0.028 -0.008    0.338  0.652 -0.200    0.007  0.014 -0.005
 H         -0.000 -0.001 -0.000   -0.000 -0.001  0.001    0.001 -0.000  0.000
 H          0.000  0.001  0.000   -0.001  0.001 -0.001   -0.000 -0.000  0.000
 H          0.726 -0.002 -0.078   -0.011  0.000  0.001   -0.001 -0.001  0.000
 H          0.244 -0.275  0.562    0.001 -0.001  0.003   -0.001  0.001 -0.002
 H         -0.006 -0.022 -0.040   -0.003  0.010  0.010    0.001 -0.002 -0.003
 TransDip  -0.108  0.023 -0.039   -0.030 -0.084 -0.027    0.044 -0.034  0.002

 Mode:                58                     59                     60
 Frequency:      3133.26                3145.41                3158.02
 Force Cnst:      6.2849                 6.3473                 6.4280
 Red. Mass:       1.0866                 1.0889                 1.0939
 IR Active:          YES                    YES                    YES
 IR Intens:        6.655                  2.314                 32.694
 Raman Active:       YES                    YES                    YES
               X      Y      Z        X      Y      Z        X      Y      Z
 C          0.013 -0.020 -0.001   -0.014  0.022  0.001    0.012 -0.016 -0.001
 C         -0.001  0.002  0.000   -0.001  0.000  0.000   -0.000  0.002  0.000
 C         -0.036 -0.066 -0.000   -0.014 -0.025  0.000   -0.012 -0.017  0.000
 C         -0.013  0.026  0.001    0.016 -0.021 -0.001    0.031 -0.048 -0.002
 C          0.011  0.000 -0.000   -0.065 -0.001  0.002   -0.006  0.004  0.000
 C          0.000  0.002  0.000    0.018  0.026  0.000   -0.031 -0.053 -0.000
 Si        -0.000 -0.000 -0.000   -0.000  0.000  0.000   -0.000 -0.000 -0.000
 C         -0.000 -0.001 -0.000    0.000  0.000 -0.000   -0.000 -0.000 -0.000
 N          0.000  0.000 -0.000    0.000 -0.000  0.000    0.000  0.000 -0.000
 C          0.002 -0.001 -0.001    0.000 -0.000 -0.000    0.000 -0.000 -0.000
 H         -0.141  0.234  0.011    0.146 -0.242 -0.011   -0.110  0.178  0.008
 H          0.424  0.768 -0.000    0.155  0.280 -0.000    0.110  0.195 -0.000
 H          0.184 -0.308 -0.010   -0.164  0.263  0.009   -0.337  0.551  0.018
 H         -0.136 -0.002  0.004    0.756  0.012 -0.020    0.062 -0.004 -0.002
 H         -0.010 -0.020 -0.000   -0.189 -0.325 -0.002    0.342  0.600  0.003
 H          0.002 -0.000 -0.000   -0.000 -0.000  0.000    0.000 -0.000 -0.000
 H         -0.001  0.004  0.005   -0.000  0.000 -0.000   -0.000  0.001  0.001
 H          0.004  0.008 -0.003   -0.001 -0.002  0.001    0.001  0.002 -0.001
 H          0.000  0.000 -0.000   -0.000  0.000 -0.000    0.000 -0.000 -0.000
 H         -0.000 -0.000  0.000    0.000  0.000 -0.000   -0.000 -0.000  0.000
 H         -0.021  0.001  0.002   -0.004  0.001  0.000   -0.003 -0.000  0.000
 H         -0.000  0.001 -0.002   -0.000 -0.000 -0.000    0.000 -0.000  0.000
 H         -0.005  0.012  0.015   -0.001  0.003  0.004   -0.001  0.001  0.002
 TransDip  -0.030 -0.077 -0.002   -0.049 -0.002  0.001   -0.011 -0.183 -0.003

 Mode:                61                     62                     63
 Frequency:      3167.39                3603.60                3708.37
 Force Cnst:      6.4958                 8.0313                 8.8847
 Red. Mass:       1.0990                 1.0497                 1.0965
 IR Active:          YES                    YES                    YES
 IR Intens:       22.608                 24.529                 23.818
 Raman Active:       YES                    YES                    YES
               X      Y      Z        X      Y      Z        X      Y      Z
 C          0.008 -0.010 -0.001   -0.000 -0.000 -0.000    0.000  0.000 -0.000
 C          0.001 -0.000 -0.000   -0.000 -0.000 -0.000    0.000  0.000  0.000
 C          0.010  0.013 -0.000    0.000  0.000 -0.000    0.000 -0.000  0.000
 C         -0.026  0.045  0.001    0.000  0.000  0.000   -0.000 -0.000  0.000
 C         -0.055 -0.001  0.001   -0.000  0.000  0.000   -0.000  0.000  0.000
 C         -0.021 -0.040 -0.000   -0.000  0.000  0.000    0.000 -0.000  0.000
 Si         0.000 -0.000 -0.000   -0.000  0.001  0.001   -0.000  0.000 -0.000
 C         -0.000  0.000  0.000   -0.000 -0.000  0.000    0.000 -0.000  0.000
 N         -0.000  0.000 -0.000    0.020 -0.027 -0.046   -0.067  0.022 -0.043
 C         -0.000  0.000  0.000   -0.000  0.000  0.000   -0.000  0.000 -0.000
 H         -0.071  0.114  0.005    0.000  0.000 -0.000    0.000 -0.000 -0.000
 H         -0.084 -0.147  0.000    0.000 -0.000  0.000    0.000  0.000  0.000
 H          0.297 -0.492 -0.016   -0.000  0.000  0.000   -0.000 -0.000 -0.000
 H          0.605  0.010 -0.016   -0.000  0.000  0.000   -0.000 -0.000  0.000
 H          0.244  0.434  0.002   -0.000 -0.000  0.000   -0.000 -0.000  0.000
 H         -0.001  0.000 -0.000    0.001  0.000 -0.000   -0.001  0.000  0.001
 H          0.000 -0.000 -0.000   -0.000  0.001  0.001   -0.000  0.001  0.000
 H          0.000  0.000  0.000    0.000  0.000 -0.000    0.000  0.001 -0.000
 H         -0.000  0.000  0.000   -0.609  0.329 -0.017    0.630 -0.346 -0.010
 H          0.000 -0.000  0.000    0.338  0.024  0.635    0.304  0.035  0.619
 H         -0.000 -0.000  0.000    0.000 -0.001 -0.000   -0.000 -0.000  0.000
 H         -0.000  0.000 -0.000   -0.000 -0.000 -0.000   -0.000  0.000 -0.000
 H          0.001 -0.001 -0.001    0.000  0.002  0.001   -0.000 -0.000 -0.000
 TransDip  -0.152  0.011  0.004   -0.046  0.102  0.113    0.121 -0.047  0.087

 STANDARD THERMODYNAMIC QUANTITIES AT   298.15 K  AND     1.00 ATM

   This Molecule has  0 Imaginary Frequencies
   Zero point vibrational energy:      118.483 kcal/mol

   Atom    1 Element C  Has Mass   12.00000
   Atom    2 Element C  Has Mass   12.00000
   Atom    3 Element C  Has Mass   12.00000
   Atom    4 Element C  Has Mass   12.00000
   Atom    5 Element C  Has Mass   12.00000
   Atom    6 Element C  Has Mass   12.00000
   Atom    7 Element Si Has Mass   27.97693
   Atom    8 Element C  Has Mass   12.00000
   Atom    9 Element N  Has Mass   14.00307
   Atom   10 Element C  Has Mass   12.00000
   Atom   11 Element H  Has Mass    1.00783
   Atom   12 Element H  Has Mass    1.00783
   Atom   13 Element H  Has Mass    1.00783
   Atom   14 Element H  Has Mass    1.00783
   Atom   15 Element H  Has Mass    1.00783
   Atom   16 Element H  Has Mass    1.00783
   Atom   17 Element H  Has Mass    1.00783
   Atom   18 Element H  Has Mass    1.00783
   Atom   19 Element H  Has Mass    1.00783
   Atom   20 Element H  Has Mass    1.00783
   Atom   21 Element H  Has Mass    1.00783
   Atom   22 Element H  Has Mass    1.00783
   Atom   23 Element H  Has Mass    1.00783
   Molecular Mass:   151.081790 amu
   Principal axes and moments of inertia in amu*Bohr^2:
                             1           2           3
    Eigenvalues --      861.95204  2446.62282  2787.33713
          X               0.99997     0.00501     0.00553
          Y              -0.00494     0.99990    -0.01290
          Z              -0.00560     0.01287     0.99990
   Rotational Symmetry Number is   1
   The Molecule is an Asymmetric Top
   Translational Enthalpy:        0.889 kcal/mol
   Rotational Enthalpy:           0.889 kcal/mol
   Vibrational Enthalpy:        124.575 kcal/mol
   gas constant (RT):             0.592 kcal/mol
   Translational Entropy:        40.948  cal/mol.K
   Rotational Entropy:           30.153  cal/mol.K
   Vibrational Entropy:          38.172  cal/mol.K

   Total Enthalpy:              126.945 kcal/mol
   Total Entropy:               109.273  cal/mol.K
Archival summary:
1\1\mm2.localdomain\FREQ\ProcedureUnspecified\6-311+G**\i11813\xuedong\FriJun2622:43:002020FriJun2622:43:002020\0\\#,FREQ,ProcedureUnspecified,6-311+G**,\\0,1\Si\N,1,1.72906\H,2,1.00868,1,123.053\H,2,1.00906,1,122.297,3,-159.167,0\C,1,1.87215,2,106.362,3,-38.2633,0\H,5,1.09431,1,111.276,2,175.836,0\H,5,1.09472,1,110.547,2,-64.2078,0\H,5,1.0975,1,111.297,2,55.7027,0\C,1,1.87604,2,115.073,3,82.5188,0\H,9,1.09535,1,112.044,2,63.815,0\H,9,1.09578,1,111.394,2,-175.181,0\H,9,1.09686,1,110.161,2,-56.0229,0\C,1,1.88054,2,105.965,3,-156.734,0\C,13,1.39683,1,122.811,2,-135.61,0\H,14,1.08837,13,119.669,1,1.7261,0\C,14,1.38925,13,121.194,1,-178.584,0\H,16,1.0862,14,120.251,13,-179.754,0\C,16,1.38753,14,119.912,13,0.00431317,0\H,18,1.08794,16,120.085,14,-179.938,0\C,18,1.3893,16,119.881,14,-0.0386998,0\H,20,1.08639,18,119.805,16,-179.909,0\C,20,1.387,18,119.872,16,-0.0229652,0\H,22,1.08875,20,119.687,18,-179.423,0\\\@

 Total job time:  11741.57s(wall), 32690.76s(cpu) 
 Fri Jun 26 22:43:00 2020

        *************************************************************
        *                                                           *
        *  Thank you very much for using Q-Chem.  Have a nice day.  *
        *                                                           *
        *************************************************************


