
Running Job 1 of 2 31.freq.B3LYP.qcinp
qchem 31.freq.B3LYP.qcinp_11034.0 /scratch/xuedong/qchem11034/ 1
/home/qwang/software/qchem5.1/exe/qcprog.exe_s 31.freq.B3LYP.qcinp_11034.0 /scratch/xuedong/qchem11034/
Check license passed

                  Welcome to Q-Chem
     A Quantum Leap Into The Future Of Chemistry


 Q-Chem 5.1, Q-Chem, Inc., Pleasanton, CA (2018)

 Yihan Shao,  Zhengting Gan,  E. Epifanovsky,  A. T. B. Gilbert,  M. Wormit,  
 J. Kussmann,  A. W. Lange,  A. Behn,  Jia Deng,  Xintian Feng,  D. Ghosh,  
 M. Goldey,  P. R. Horn,  L. D. Jacobson,  I. Kaliman,  T. Kus,  A. Landau,  
 Jie Liu,  E. I. Proynov,  R. M. Richard,  R. P. Steele,  E. J. Sundstrom,  
 H. L. Woodcock III,  P. M. Zimmerman,  D. Zuev,  B. Albrecht,  E. Alguire,  
 S. A. Baeppler,  D. Barton,  Z. Benda,  Y. A. Bernard,  E. J. Berquist,  
 K. B. Bravaya,  H. Burton,  D. Casanova,  Chun-Min Chang,  Yunqing Chen,  
 A. Chien,  K. D. Closser,  M. P. Coons,  S. Coriani,  S. Dasgupta,  
 A. L. Dempwolff,  M. Diedenhofen,  Hainam Do,  R. G. Edgar,  Po-Tung Fang,  
 S. Faraji,  S. Fatehi,  Qingguo Feng,  K. D. Fenk,  J. Fosso-Tande,  
 Qinghui Ge,  A. Ghysels,  G. Gidofalvi,  J. Gomes,  J. Gonthier,  A. Gunina,  
 D. Hait,  M. W. D. Hanson-Heine,  P. H. P. Harbach,  A. W. Hauser,  
 J. E. Herr,  E. G. Hohenstein,  Z. C. Holden,  Kerwin Hui,  B. C. Huynh,  
 T.-C. Jagau,  Hyunjun Ji,  B. Kaduk,  K. Khistyaev,  Jaehoon Kim,  
 P. Klunzinger,  K. Koh,  D. Kosenkov,  L. Koulias,  T. Kowalczyk,  
 C. M. Krauter,  A. Kunitsa,  Ka Un Lao,  A. Laurent,  K. V. Lawler,  
 Joonho Lee,  D. Lefrancois,  S. Lehtola,  D. S. Levine,  Yi-Pei Li,  
 You-Sheng Lin,  Fenglai Liu,  E. Livshits,  A. Luenser,  P. Manohar,  
 E. Mansoor,  S. F. Manzer,  Shan-Ping Mao,  Yuezhi Mao,  N. Mardirossian,  
 A. V. Marenich,  T. Markovich,  L. A. Martinez-Martinez,  S. A. Maurer,  
 N. J. Mayhall,  S. C. McKenzie,  J.-M. Mewes,  A. F. Morrison,  
 J. W. Mullinax,  K. Nanda,  T. S. Nguyen-Beck,  R. Olivares-Amaya,  
 J. A. Parkhill,  T. M. Perrine,  F. Plasser,  P. Pokhilko,  S. Prager,  
 A. Prociuk,  E. Ramos,  D. R. Rehn,  F. Rob,  M. Schneider,  N. Sergueev,  
 S. M. Sharada,  S. Sharma,  D. W. Small,  T. Stauch,  T. Stein,  
 Yu-Chuan Su,  A. J. W. Thom,  A. Tkatchenko,  T. Tsuchimochi,  N. M. Tubman,  
 L. Vogt,  M. L. Vidal,  O. Vydrov,  M. A. Watson,  J. Wenzel,  
 M. de Wergifosse,  T. A. Wesolowski,  A. White,  J. Witte,  A. Yamada,  
 Jun Yang,  K. Yao,  S. Yeganeh,  S. R. Yost,  Zhi-Qiang You,  A. Zech,  
 Igor Ying Zhang,  Xing Zhang,  Yan Zhao,  Ying Zhu,  B. R. Brooks,  
 G. K. L. Chan,  C. J. Cramer,  M. S. Gordon,  W. J. Hehre,  A. Klamt,  
 M. W. Schmidt,  C. D. Sherrill,  D. G. Truhlar,  A. Aspuru-Guzik,  R. Baer,  
 A. T. Bell,  N. A. Besley,  Jeng-Da Chai,  R. A. DiStasio Jr.,  A. Dreuw,  
 B. D. Dunietz,  T. R. Furlani,  Chao-Ping Hsu,  Yousung Jung,  Jing Kong,  
 D. S. Lambrecht,  WanZhen Liang,  C. Ochsenfeld,  V. A. Rassolov,  
 L. V. Slipchenko,  J. E. Subotnik,  T. Van Voorhis,  J. M. Herbert,  
 A. I. Krylov,  P. M. W. Gill,  M. Head-Gordon

 Contributors to earlier versions of Q-Chem not listed above: 
 R. D. Adamson,  B. Austin,  J. Baker,  G. J. O. Beran,  K. Brandhorst,  
 S. T. Brown,  E. F. C. Byrd,  A. K. Chakraborty,  C.-L. Cheng,  
 Siu Hung Chien,  D. M. Chipman,  D. L. Crittenden,  H. Dachsel,  
 R. J. Doerksen,  A. D. Dutoi,  L. Fusti-Molnar,  W. A. Goddard III,  
 A. Golubeva-Zadorozhnaya,  S. R. Gwaltney,  G. Hawkins,  A. Heyden,  
 S. Hirata,  G. Kedziora,  F. J. Keil,  C. Kelley,  Jihan Kim,  R. A. King,  
 R. Z. Khaliullin,  P. P. Korambath,  W. Kurlancheek,  A. M. Lee,  M. S. Lee,  
 S. V. Levchenko,  Ching Yeh Lin,  D. Liotard,  R. C. Lochan,  I. Lotan,  
 P. E. Maslen,  N. Nair,  D. P. O'Neill,  D. Neuhauser,  E. Neuscamman,  
 C. M. Oana,  R. Olson,  B. Peters,  R. Peverati,  P. A. Pieniazek,  
 Y. M. Rhee,  J. Ritchie,  M. A. Rohrdanz,  E. Rosta,  N. J. Russ,  
 H. F. Schaefer III,  N. E. Schultz,  N. Shenvi,  A. C. Simmonett,  A. Sodt,  
 D. Stuck,  K. S. Thanthiriwatte,  V. Vanovschi,  Tao Wang,  A. Warshel,  
 C. F. Williams,  Q. Wu,  X. Xu,  W. Zhang

 Please cite Q-Chem as follows:
 Y. Shao et al., Mol. Phys. 113, 184-215 (2015)
 DOI: 10.1080/00268976.2014.952696

 Q-Chem 5.1.0 for Intel X86 EM64T Linux

 Parts of Q-Chem use Armadillo 8.300.2 (Tropical Shenanigans).
 http://arma.sourceforge.net/

 Q-Chem begins on Tue Nov  5 18:19:14 2019  

Host: 
0

     Scratch files written to /scratch/xuedong/qchem11034//
 May118 |scratch|qcdevops|jenkins|workspace|build_RNUM 6581   
Processing $rem in /home/qwang/software/qchem5.1/config/preferences.
 MEM_TOTAL  2000 

Checking the input file for inconsistencies... 	...done.

--------------------------------------------------------------
User input:
--------------------------------------------------------------
$molecule
0 1
C         0.4276781526    0.0284758528    0.0000000000
C         1.1585995944    1.2298772803    0.0000000000
C         2.5548798562    1.2243241903    0.0000000000
C         3.2504886265    0.0142206923    0.0000000000
C         2.5446834011   -1.1908250113    0.0000000000
C         1.1495819035   -1.1791467552    0.0000000000
Si       -1.4505087159    0.0313462692    0.0000000000
C        -2.1316162092   -0.8288160864    1.5370658676
C        -2.1316162092   -0.8288160864   -1.5370658676
O        -1.8560708563    1.6613918649    0.0000000000
H         0.6250117761    2.1764340482    0.0000000000
H         3.1003482777    2.1649515997    0.0000000000
H         4.3377065671    0.0090260518    0.0000000000
H         3.0809073662   -2.1366714738    0.0000000000
H         0.6194964368   -2.1306513106    0.0000000000
H        -3.2284607151   -0.7956477161    1.5669637544
H        -1.8392945720   -1.8860507083    1.5605592033
H        -1.7556070053   -0.3584673230    2.4524395218
H        -3.2284607151   -0.7956477161   -1.5669637544
H        -1.7556070053   -0.3584673230   -2.4524395218
H        -1.8392945720   -1.8860507083   -1.5605592033
H        -2.8017884817    1.8603257412    0.0000000000
$end

$rem
JOBTYPE  =  opt
METHOD  =  B3LYP
BASIS  =  6-311G+(d,p)
SCF_MAX_CYCLES  =  200
GEOM_OPT_MAX_CYCLES  =  300
GEOM_OPT_TOL_DISPLACEMENT = 120
GEOM_OPT_TOL_ENERGY = 10
GEOM_OPT_TOL_GRADIENT = 20
$end
--------------------------------------------------------------
 ----------------------------------------------------------------
             Standard Nuclear Orientation (Angstroms)
    I     Atom           X                Y                Z
 ----------------------------------------------------------------
    1      C       0.4147351887     0.0144162168     0.0000000000
    2      C       1.1717767402     1.1995320902     0.0000000000
    3      C       2.5676009800     1.1634197932     0.0000000000
    4      C       3.2365574500    -0.0616186872    -0.0000000000
    5      C       2.5045463355    -1.2509276850    -0.0000000000
    6      C       1.1100346398    -1.2087174890    -0.0000000000
    7      Si     -1.4629389324     0.0583940248     0.0000000000
    8      C      -2.1627097319    -0.7866548042     1.5370658676
    9      C      -2.1627097319    -0.7866548042    -1.5370658676
   10      O      -1.8327269354     1.6969257232     0.0000000000
   11      H       0.6590341341     2.1575408033     0.0000000000
   12      H       3.1335263476     2.0918831476     0.0000000000
   13      H       4.3234012503    -0.0906081400    -0.0000000000
   14      H       3.0199400035    -2.2082839605    -0.0000000000
   15      H       0.5592504726    -2.1483920721    -0.0000000000
   16      H      -3.2585655274    -0.7294876250     1.5669637544
   17      H      -1.8935979294    -1.8500342393     1.5605592033
   18      H      -1.7764960273    -0.3246484677     2.4524395218
   19      H      -3.2585655274    -0.7294876250    -1.5669637544
   20      H      -1.7764960273    -0.3246484677    -2.4524395218
   21      H      -1.8935979294    -1.8500342393    -1.5605592033
   22      H      -2.7738639255     1.9165109686     0.0000000000
 ----------------------------------------------------------------
 Molecular Point Group                 Cs    NOp =  2
 Largest Abelian Subgroup              Cs    NOp =  2
 Nuclear Repulsion Energy =   591.0908233821 hartrees
 There are       41 alpha and       41 beta electrons
 Requested basis set is 6-311+G(d,p)
 There are 115 shells and 300 basis functions

 Total QAlloc Memory Limit   2000 MB
 Mega-Array Size       188 MB
 MEM_STATIC part       192 MB
 A cutoff of  1.0D-11 yielded   5514 shell pairs
 There are     39058 function pairs (     41664 Cartesian)
 
 -------------------------------------------------------
 OpenMP Integral Computing Module                       
 Release: version 1.0, May 2013, Q-Chem Inc. Pittsburgh 
 -------------------------------------------------------
 Integral Job Info:
 Integral job number is                      11
 Integral operator is                         1
 short-range coefficients                     0
 long-range coefficients              100000000
 Omega coefficients                           0
 if combine SR and LR in K                    0
 Integral screening is                        0
 Integral computing path is                   2
 max size of driver memory is            800000
 size of driver memory is                593474
 size of scratch memory is              4204008
 max col of scratch BK array               1296
 max len of scratch array in speh3          155
 max len of scratch index in speh4           18
 max int batch size is                      520
 min int batch size is                       52
 fixed nKL is                                52
 max L of basis functions is                  2
 order of int derivative is                   0
 number of shells is                        115
 number of basis is                         310
 number of cartesian basis is               310
 number of contracted shell pairs          5514
 number of primitive shell pairs          12805
 maxK2 (contraction) of shell pair           36
 max number of K2 of shell pair               1
 max number of CS2 of shell pair            822
 max number of PS2 of shell pair           1515
 mem total for path MDJ                  562348
 -------------------------------------------------------
 Smallest overlap matrix eigenvalue = 2.49E-06

 Q-Chem warning in module stvman/mkSTV.C, line 295:

 Overlap eigenvalue is smaller than square root of threshold


 Scale SEOQF with 1.000000e-01/1.000000e-01/1.000000e-01

 Standard Electronic Orientation quadrupole field applied
 Nucleus-field energy     =     0.0000000140 hartrees
 Guess from superposition of atomic densities
 Warning:  Energy on first SCF cycle will be non-variational
 SAD guess density has 82.000000 electrons

 -----------------------------------------------------------------------
  General SCF calculation program by
  Eric Jon Sundstrom, Paul Horn, Yuezhi Mao, Dmitri Zuev, Alec White,
  David Stuck, Shaama M.S., Shane Yost, Joonho Lee, David Small,
  Daniel Levine, Susi Lehtola, Hugh Burton, Evgeny Epifanovsky
 -----------------------------------------------------------------------
 Exchange:     0.2000 Hartree-Fock + 0.0800 Slater + 0.7200 B88
 Correlation:  0.1900 VWN1RPA + 0.8100 LYP
 Using SG-1 standard quadrature grid
 using 4 threads for integral computing
 -------------------------------------------------------
 OpenMP Integral computing Module                
 Release: version 1.0, May 2013, Q-Chem Inc. Pittsburgh 
 -------------------------------------------------------
 -------------------------------------------------------
 OpenMP BLAS3 based DFT computing Module                
 Release: version 1.0, May 2013, Q-Chem Inc. Pittsburgh 
 -------------------------------------------------------
 A restricted SCF calculation will be
 performed using DIIS
 SCF converges when DIIS error is below 1.0e-08
 ---------------------------------------
  Cycle       Energy         DIIS error
 ---------------------------------------
    1    -678.7836306893      3.55e-02  
    2    -676.6986819304      5.38e-03  
    3    -676.5392395120      6.79e-03  
    4    -677.0012398067      1.04e-03  
    5    -677.0098658312      3.01e-04  
    6    -677.0106817091      7.80e-05  
    7    -677.0107247929      4.88e-05  
    8    -677.0107550571      4.44e-06  
    9    -677.0107552169      1.88e-06  
   10    -677.0107552523      6.96e-07  
   11    -677.0107552576      1.91e-07  
   12    -677.0107552580      6.10e-08  
   13    -677.0107552582      1.26e-08  
   14    -677.0107552581      3.95e-09  Convergence criterion met
 ---------------------------------------
 SCF time:   CPU 116.11s  wall 29.00s 
 SCF   energy in the final basis set =     -677.0107552581
 Total energy in the final basis set =     -677.0107552581
 
 --------------------------------------------------------------
             Orbital Energies (a.u.) and Symmetries
 --------------------------------------------------------------
 
 Alpha MOs, Restricted
 -- Occupied --                  
-66.109 -19.119 -10.179 -10.178 -10.176 -10.175 -10.174 -10.164
  1 A'    2 A'    3 A'    4 A'    5 A'    6 A'    7 A'    8 A'                 
-10.151 -10.151  -5.279  -3.639  -3.637  -3.636  -0.999  -0.853
  9 A'    1 A"   10 A'   11 A'   12 A'    2 A"   13 A'   14 A'                 
 -0.747  -0.746  -0.707  -0.685  -0.605  -0.601  -0.546  -0.510
 15 A'   16 A'   17 A'    3 A"   18 A'   19 A'   20 A'   21 A'                 
 -0.461  -0.449  -0.433  -0.422  -0.419  -0.410  -0.403  -0.399
 22 A'   23 A'   24 A'   25 A'   26 A'   27 A'    4 A"    5 A"                 
 -0.388  -0.370  -0.350  -0.348  -0.340  -0.301  -0.294  -0.256
 28 A'    6 A"   29 A'    7 A"   30 A'   31 A'    8 A"    9 A"                 
 -0.254
 10 A"                                                                         
 -- Virtual --                   
 -0.024  -0.017  -0.014   0.007   0.014   0.021   0.030   0.035
 11 A"   32 A'   12 A"   33 A'   34 A'   13 A"   35 A'   36 A'                 
  0.048   0.057   0.058   0.063   0.065   0.068   0.076   0.088
 37 A'   38 A'   14 A"   39 A'   15 A"   40 A'   41 A'   16 A"                 
  0.091   0.098   0.098   0.101   0.106   0.113   0.113   0.124
 42 A'   43 A'   17 A"   18 A"   44 A'   45 A'   19 A"   46 A'                 
  0.129   0.135   0.141   0.145   0.151   0.152   0.162   0.167
 47 A'   20 A"   21 A"   48 A'   49 A'   22 A"   50 A'   51 A'                 
  0.170   0.177   0.181   0.182   0.192   0.199   0.200   0.206
 23 A"   52 A'   24 A"   53 A'   54 A'   25 A"   55 A'   56 A'                 
  0.212   0.219   0.223   0.226   0.229   0.232   0.236   0.241
 57 A'   58 A'   59 A'   26 A"   60 A'   61 A'   27 A"   62 A'                 
  0.248   0.261   0.266   0.273   0.275   0.288   0.299   0.306
 63 A'   64 A'   28 A"   65 A'   66 A'   67 A'   68 A'   29 A"                 
  0.313   0.326   0.331   0.334   0.335   0.353   0.374   0.385
 69 A'   70 A'   71 A'   30 A"   72 A'   73 A'   74 A'   75 A'                 
  0.391   0.397   0.449   0.462   0.490   0.511   0.514   0.519
 31 A"   76 A'   77 A'   78 A'   79 A'   32 A"   80 A'   81 A'                 
  0.530   0.535   0.535   0.544   0.553   0.559   0.564   0.586
 82 A'   83 A'   33 A"   84 A'   85 A'   34 A"   86 A'   35 A"                 
  0.594   0.610   0.610   0.620   0.637   0.642   0.659   0.664
 87 A'   36 A"   88 A'   37 A"   38 A"   89 A'   39 A"   90 A'                 
  0.675   0.677   0.678   0.691   0.705   0.708   0.724   0.729
 91 A'   40 A"   41 A"   92 A'   93 A'   94 A'   95 A'   96 A'                 
  0.746   0.755   0.766   0.775   0.800   0.823   0.827   0.836
 42 A"   97 A'   98 A'   43 A"   99 A'  100 A'  101 A'  102 A'                 
  0.847   0.847   0.865   0.868   0.889   0.898   0.914   0.921
 44 A"  103 A'  104 A'  105 A'  106 A'  107 A'  108 A'   45 A"                 
  0.927   0.974   1.002   1.020   1.023   1.061   1.081   1.087
109 A'  110 A'   46 A"   47 A"  111 A'   48 A"   49 A"   50 A"                 
  1.100   1.118   1.123   1.142   1.161   1.165   1.202   1.241
112 A'  113 A'   51 A"   52 A"   53 A"  114 A'  115 A'  116 A'                 
  1.268   1.268   1.311   1.355   1.395   1.439   1.455   1.466
 54 A"  117 A'  118 A'  119 A'   55 A"  120 A'   56 A"  121 A'                 
  1.483   1.485   1.501   1.519   1.538   1.551   1.571   1.572
 57 A"  122 A'  123 A'  124 A'  125 A'  126 A'   58 A"   59 A"                 
  1.585   1.591   1.591   1.602   1.615   1.642   1.650   1.666
127 A'  128 A'   60 A"  129 A'   61 A"   62 A"  130 A'  131 A'                 
  1.690   1.713   1.725   1.737   1.754   1.766   1.774   1.781
132 A'   63 A"  133 A'   64 A"   65 A"  134 A'   66 A"   67 A"                 
  1.787   1.798   1.832   1.859   1.871   1.920   1.932   1.947
135 A'  136 A'  137 A'  138 A'  139 A'   68 A"   69 A"  140 A'                 
  1.961   1.977   2.009   2.016   2.053   2.063   2.066   2.081
141 A'  142 A'  143 A'   70 A"  144 A'   71 A"  145 A'   72 A"                 
  2.103   2.123   2.170   2.194   2.237   2.244   2.288   2.325
146 A'  147 A'   73 A"   74 A"  148 A'  149 A'   75 A"  150 A'                 
  2.339   2.388   2.402   2.411   2.456   2.456   2.487   2.495
 76 A"  151 A'  152 A'  153 A'   77 A"  154 A'  155 A'   78 A"                 
  2.512   2.518   2.522   2.553   2.586   2.614   2.631   2.657
 79 A"  156 A'   80 A"  157 A'  158 A'  159 A'  160 A'   81 A"                 
  2.662   2.670   2.683   2.705   2.729   2.753   2.766   2.771
161 A'  162 A'   82 A"  163 A'  164 A'  165 A'  166 A'  167 A'                 
  2.795   2.808   2.826   2.838   2.871   2.879   2.889   2.920
 83 A"  168 A'   84 A"  169 A'   85 A"  170 A'   86 A"   87 A"                 
  2.932   2.976   3.083   3.091   3.108   3.121   3.165   3.280
171 A'   88 A"  172 A'   89 A"   90 A"  173 A'  174 A'   91 A"                 
  3.291   3.349   3.358   3.381   3.488   3.521   3.607   3.725
175 A'  176 A'  177 A'  178 A'  179 A'  180 A'  181 A'   92 A"                 
  3.743   3.763   3.780   3.800   3.884   3.991   4.042   4.146
 93 A"  182 A'  183 A'  184 A'  185 A'  186 A'  187 A'  188 A'                 
  4.161   4.841   5.025   5.107   5.544   5.884  11.504  11.534
189 A'  190 A'   94 A"  191 A'  192 A'  193 A'   95 A"  194 A'                 
 11.568  23.569  23.936  23.939  23.945  23.969  24.058  24.088
195 A'  196 A'   96 A"  197 A'  198 A'  199 A'  200 A'  201 A'                 
 24.181  49.931 141.312
202 A'  203 A'  204 A'                                                         
 
 Beta MOs, Restricted
 -- Occupied --                  
-66.109 -19.119 -10.179 -10.178 -10.176 -10.175 -10.174 -10.164
  1 A'    2 A'    3 A'    4 A'    5 A'    6 A'    7 A'    8 A'                 
-10.151 -10.151  -5.279  -3.639  -3.637  -3.636  -0.999  -0.853
  9 A'    1 A"   10 A'   11 A'   12 A'    2 A"   13 A'   14 A'                 
 -0.747  -0.746  -0.707  -0.685  -0.605  -0.601  -0.546  -0.510
 15 A'   16 A'   17 A'    3 A"   18 A'   19 A'   20 A'   21 A'                 
 -0.461  -0.449  -0.433  -0.422  -0.419  -0.410  -0.403  -0.399
 22 A'   23 A'   24 A'   25 A'   26 A'   27 A'    4 A"    5 A"                 
 -0.388  -0.370  -0.350  -0.348  -0.340  -0.301  -0.294  -0.256
 28 A'    6 A"   29 A'    7 A"   30 A'   31 A'    8 A"    9 A"                 
 -0.254
 10 A"                                                                         
 -- Virtual --                   
 -0.024  -0.017  -0.014   0.007   0.014   0.021   0.030   0.035
 11 A"   32 A'   12 A"   33 A'   34 A'   13 A"   35 A'   36 A'                 
  0.048   0.057   0.058   0.063   0.065   0.068   0.076   0.088
 37 A'   38 A'   14 A"   39 A'   15 A"   40 A'   41 A'   16 A"                 
  0.091   0.098   0.098   0.101   0.106   0.113   0.113   0.124
 42 A'   43 A'   17 A"   18 A"   44 A'   45 A'   19 A"   46 A'                 
  0.129   0.135   0.141   0.145   0.151   0.152   0.162   0.167
 47 A'   20 A"   21 A"   48 A'   49 A'   22 A"   50 A'   51 A'                 
  0.170   0.177   0.181   0.182   0.192   0.199   0.200   0.206
 23 A"   52 A'   24 A"   53 A'   54 A'   25 A"   55 A'   56 A'                 
  0.212   0.219   0.223   0.226   0.229   0.232   0.236   0.241
 57 A'   58 A'   59 A'   26 A"   60 A'   61 A'   27 A"   62 A'                 
  0.248   0.261   0.266   0.273   0.275   0.288   0.299   0.306
 63 A'   64 A'   28 A"   65 A'   66 A'   67 A'   68 A'   29 A"                 
  0.313   0.326   0.331   0.334   0.335   0.353   0.374   0.385
 69 A'   70 A'   71 A'   30 A"   72 A'   73 A'   74 A'   75 A'                 
  0.391   0.397   0.449   0.462   0.490   0.511   0.514   0.519
 31 A"   76 A'   77 A'   78 A'   79 A'   32 A"   80 A'   81 A'                 
  0.530   0.535   0.535   0.544   0.553   0.559   0.564   0.586
 82 A'   83 A'   33 A"   84 A'   85 A'   34 A"   86 A'   35 A"                 
  0.594   0.610   0.610   0.620   0.637   0.642   0.659   0.664
 87 A'   36 A"   88 A'   37 A"   38 A"   89 A'   39 A"   90 A'                 
  0.675   0.677   0.678   0.691   0.705   0.708   0.724   0.729
 91 A'   40 A"   41 A"   92 A'   93 A'   94 A'   95 A'   96 A'                 
  0.746   0.755   0.766   0.775   0.800   0.823   0.827   0.836
 42 A"   97 A'   98 A'   43 A"   99 A'  100 A'  101 A'  102 A'                 
  0.847   0.847   0.865   0.868   0.889   0.898   0.914   0.921
 44 A"  103 A'  104 A'  105 A'  106 A'  107 A'  108 A'   45 A"                 
  0.927   0.974   1.002   1.020   1.023   1.061   1.081   1.087
109 A'  110 A'   46 A"   47 A"  111 A'   48 A"   49 A"   50 A"                 
  1.100   1.118   1.123   1.142   1.161   1.165   1.202   1.241
112 A'  113 A'   51 A"   52 A"   53 A"  114 A'  115 A'  116 A'                 
  1.268   1.268   1.311   1.355   1.395   1.439   1.455   1.466
 54 A"  117 A'  118 A'  119 A'   55 A"  120 A'   56 A"  121 A'                 
  1.483   1.485   1.501   1.519   1.538   1.551   1.571   1.572
 57 A"  122 A'  123 A'  124 A'  125 A'  126 A'   58 A"   59 A"                 
  1.585   1.591   1.591   1.602   1.615   1.642   1.650   1.666
127 A'  128 A'   60 A"  129 A'   61 A"   62 A"  130 A'  131 A'                 
  1.690   1.713   1.725   1.737   1.754   1.766   1.774   1.781
132 A'   63 A"  133 A'   64 A"   65 A"  134 A'   66 A"   67 A"                 
  1.787   1.798   1.832   1.859   1.871   1.920   1.932   1.947
135 A'  136 A'  137 A'  138 A'  139 A'   68 A"   69 A"  140 A'                 
  1.961   1.977   2.009   2.016   2.053   2.063   2.066   2.081
141 A'  142 A'  143 A'   70 A"  144 A'   71 A"  145 A'   72 A"                 
  2.103   2.123   2.170   2.194   2.237   2.244   2.288   2.325
146 A'  147 A'   73 A"   74 A"  148 A'  149 A'   75 A"  150 A'                 
  2.339   2.388   2.402   2.411   2.456   2.456   2.487   2.495
 76 A"  151 A'  152 A'  153 A'   77 A"  154 A'  155 A'   78 A"                 
  2.512   2.518   2.522   2.553   2.586   2.614   2.631   2.657
 79 A"  156 A'   80 A"  157 A'  158 A'  159 A'  160 A'   81 A"                 
  2.662   2.670   2.683   2.705   2.729   2.753   2.766   2.771
161 A'  162 A'   82 A"  163 A'  164 A'  165 A'  166 A'  167 A'                 
  2.795   2.808   2.826   2.838   2.871   2.879   2.889   2.920
 83 A"  168 A'   84 A"  169 A'   85 A"  170 A'   86 A"   87 A"                 
  2.932   2.976   3.083   3.091   3.108   3.121   3.165   3.280
171 A'   88 A"  172 A'   89 A"   90 A"  173 A'  174 A'   91 A"                 
  3.291   3.349   3.358   3.381   3.488   3.521   3.607   3.725
175 A'  176 A'  177 A'  178 A'  179 A'  180 A'  181 A'   92 A"                 
  3.743   3.763   3.780   3.800   3.884   3.991   4.042   4.146
 93 A"  182 A'  183 A'  184 A'  185 A'  186 A'  187 A'  188 A'                 
  4.161   4.841   5.025   5.107   5.544   5.884  11.504  11.534
189 A'  190 A'   94 A"  191 A'  192 A'  193 A'   95 A"  194 A'                 
 11.568  23.569  23.936  23.939  23.945  23.969  24.058  24.088
195 A'  196 A'   96 A"  197 A'  198 A'  199 A'  200 A'  201 A'                 
 24.181  49.931 141.312
202 A'  203 A'  204 A'                                                         
 --------------------------------------------------------------
 
          Ground-State Mulliken Net Atomic Charges

     Atom                 Charge (a.u.)
  ----------------------------------------
      1 C                    -0.089734
      2 C                    -0.315079
      3 C                     0.068939
      4 C                    -0.210288
      5 C                    -0.045463
      6 C                    -0.421348
      7 Si                    1.280381
      8 C                    -0.820557
      9 C                    -0.820557
     10 O                    -0.514517
     11 H                     0.154576
     12 H                     0.124239
     13 H                     0.125587
     14 H                     0.122483
     15 H                     0.115735
     16 H                     0.160234
     17 H                     0.161992
     18 H                     0.177107
     19 H                     0.160234
     20 H                     0.177107
     21 H                     0.161992
     22 H                     0.246937
  ----------------------------------------
  Sum of atomic charges =    -0.000000

 -----------------------------------------------------------------
                    Cartesian Multipole Moments
 -----------------------------------------------------------------
    Charge (ESU x 10^10)
                -0.0000
    Dipole Moment (Debye)
         X      -1.1878      Y      -0.8463      Z      -0.0000
       Tot       1.4585
    Quadrupole Moments (Debye-Ang)
        XX     -58.0584     XY      -1.3335     YY     -66.7302
        XZ      -0.0000     YZ       0.0000     ZZ     -72.8005
    Octopole Moments (Debye-Ang^2)
       XXX     -18.4175    XXY      16.0988    XYY       1.8861
       YYY       1.5353    XXZ      -0.0000    XYZ       0.0000
       YYZ      -0.0000    XZZ      -8.4523    YZZ       4.7466
       ZZZ      -0.0000
    Hexadecapole Moments (Debye-Ang^3)
      XXXX   -1615.6170   XXXY     -69.9918   XXYY    -353.7789
      XYYY     -19.2255   YYYY    -511.4619   XXXZ      -0.0000
      XXYZ      -0.0000   XYYZ      -0.0000   YYYZ       0.0000
      XXZZ    -394.9232   XYZZ      -9.7663   YYZZ    -157.9292
      XZZZ      -0.0000   YZZZ      -0.0000   ZZZZ    -347.4492
 -----------------------------------------------------------------
 Calculating analytic gradient of the SCF energy
 Gradient of SCF Energy
            1           2           3           4           5           6
    1  -0.0029988   0.0002564   0.0000191   0.0000357  -0.0000315   0.0003576
    2  -0.0001316   0.0001128   0.0005539  -0.0000849  -0.0003880  -0.0000353
    3  -0.0000000   0.0000000  -0.0000000   0.0000000   0.0000000  -0.0000000
            7           8           9          10          11          12
    1  -0.0009513   0.0004528   0.0004528   0.0088458  -0.0006883   0.0009219
    2   0.0042595  -0.0004096  -0.0004096   0.0000389   0.0012134   0.0014895
    3   0.0000000  -0.0005535   0.0005535   0.0000000   0.0000000   0.0000000
           13          14          15          16          17          18
    1   0.0017726   0.0008599  -0.0009342  -0.0014436   0.0002231   0.0003820
    2  -0.0000308  -0.0015388  -0.0014550  -0.0000810  -0.0015915   0.0005569
    3   0.0000000  -0.0000000  -0.0000000   0.0003493   0.0003110   0.0012809
           19          20          21          22
    1  -0.0014436   0.0003820   0.0002231  -0.0066933
    2  -0.0000810   0.0005569  -0.0015915  -0.0009529
    3  -0.0003493  -0.0012809  -0.0003110  -0.0000000
 Max gradient component =       8.846E-03
 RMS gradient           =       1.662E-03
 Gradient time:  CPU 42.55 s  wall 10.66 s
 Geometry Optimization Parameters
   NAtoms,    NIC,     NZ,  NCons,   NDum,   NFix, NCnnct, MaxDiis
       22     154       0       0       0       0       0       0


** GEOMETRY OPTIMIZATION IN DELOCALIZED INTERNAL COORDINATES **
   Searching for a Minimum

   Optimization Cycle:   1

                       Coordinates (Angstroms)
     ATOM                X               Y               Z
      1  C         0.4147351887    0.0144162168    0.0000000000
      2  C         1.1717767402    1.1995320902    0.0000000000
      3  C         2.5676009800    1.1634197932    0.0000000000
      4  C         3.2365574500   -0.0616186872    0.0000000000
      5  C         2.5045463355   -1.2509276850    0.0000000000
      6  C         1.1100346398   -1.2087174890    0.0000000000
      7  Si       -1.4629389324    0.0583940248    0.0000000000
      8  C        -2.1627097319   -0.7866548042    1.5370658676
      9  C        -2.1627097319   -0.7866548042   -1.5370658676
     10  O        -1.8327269354    1.6969257232    0.0000000000
     11  H         0.6590341341    2.1575408033    0.0000000000
     12  H         3.1335263476    2.0918831476    0.0000000000
     13  H         4.3234012503   -0.0906081400    0.0000000000
     14  H         3.0199400035   -2.2082839605    0.0000000000
     15  H         0.5592504726   -2.1483920721    0.0000000000
     16  H        -3.2585655274   -0.7294876250    1.5669637544
     17  H        -1.8935979294   -1.8500342393    1.5605592033
     18  H        -1.7764960273   -0.3246484677    2.4524395218
     19  H        -3.2585655274   -0.7294876250   -1.5669637544
     20  H        -1.7764960273   -0.3246484677   -2.4524395218
     21  H        -1.8935979294   -1.8500342393   -1.5605592033
     22  H        -2.7738639255    1.9165109686    0.0000000000
   Point Group: cs    Number of degrees of freedom:    37


   Energy is   -677.010755258


 Attempting to Generate Delocalized Internal Coordinates

 37 Hessian modes will be used to form the next step
  Hessian Eigenvalues:
     0.002596    0.048416    0.053663    0.054271    0.059697    0.160000
     0.160000    0.160000    0.160000    0.160000    0.160000    0.160000
     0.160000    0.160000    0.177136    0.202246    0.208122    0.220000
     0.220000    0.234658    0.250000    0.339318    0.339987    0.341641
     0.349055    0.351215    0.351297    0.351347    0.352093    0.384434
     0.413875    0.415782    0.449679    0.455445    0.462577    0.463636
     0.541163

 Minimum Search - Taking Simple RFO Step
 Searching for Lamda that Minimizes Along All modes
 Value Taken    Lamda =  -0.00041320
 Step Taken.  Stepsize is  0.047360

                             Maximum     Tolerance    Cnvgd?
         Gradient           0.005272      0.000020      NO
         Displacement       0.023767      0.000120      NO
         Energy change     *********      0.000000      NO


 New Cartesian Coordinates Obtained by Inverse Iteration

 Displacement from previous Coordinates is:  0.067271
 ----------------------------------------------------------------
             Standard Nuclear Orientation (Angstroms)
    I     Atom           X                Y                Z
 ----------------------------------------------------------------
    1      C       0.4183022760     0.0090771539     0.0000000000
    2      C       1.1701930390     1.1946704252     0.0000000000
    3      C       2.5640585296     1.1616873715     0.0000000000
    4      C       3.2355184099    -0.0593200992     0.0000000000
    5      C       2.5076650414    -1.2485012401     0.0000000000
    6      C       1.1150817537    -1.2104063188     0.0000000000
    7      Si     -1.4605406070     0.0486623452     0.0000000000
    8      C      -2.1643052147    -0.7865848932     1.5343369668
    9      C      -2.1643052147    -0.7865848932    -1.5343369668
   10      O      -1.8343839708     1.6881978626     0.0000000000
   11      H       0.6560252095     2.1495387351     0.0000000000
   12      H       3.1261389123     2.0894033438     0.0000000000
   13      H       4.3197684212    -0.0853870126     0.0000000000
   14      H       3.0242156046    -2.2022180892     0.0000000000
   15      H       0.5684433601    -2.1494720380     0.0000000000
   16      H      -3.2576817858    -0.7234586704     1.5600780935
   17      H      -1.8999781537    -1.8485854581     1.5582525234
   18      H      -1.7773991239    -0.3252718274     2.4471007546
   19      H      -3.2576817858    -0.7234586704    -1.5600780935
   20      H      -1.7773991239    -0.3252718274    -2.4471007546
   21      H      -1.8999781537    -1.8485854581    -1.5582525234
   22      H      -2.7636221063     1.9302937203     0.0000000000
 ----------------------------------------------------------------
 Molecular Point Group                 Cs    NOp =  2
 Largest Abelian Subgroup              Cs    NOp =  2
 Nuclear Repulsion Energy =   591.7341156052 hartrees
 There are       41 alpha and       41 beta electrons
 Applying Cartesian multipole field
    Component          Value
    ---------          -----
     (2,0,0)        1.00000E-11
     (0,2,0)        2.00000E-11
     (0,0,2)       -3.00000E-11
 Nucleus-field energy     =     0.0000000140 hartrees
 Requested basis set is 6-311+G(d,p)
 There are 115 shells and 300 basis functions
 A cutoff of  1.0D-11 yielded   5515 shell pairs
 There are     39061 function pairs (     41667 Cartesian)
 Smallest overlap matrix eigenvalue = 2.47E-06

 Q-Chem warning in module stvman/mkSTV.C, line 295:

 Overlap eigenvalue is smaller than square root of threshold

 Guess MOs from SCF MO coefficient file
 Reading MOs from coefficient file
 Reading MOs from coefficient file

 -----------------------------------------------------------------------
  General SCF calculation program by
  Eric Jon Sundstrom, Paul Horn, Yuezhi Mao, Dmitri Zuev, Alec White,
  David Stuck, Shaama M.S., Shane Yost, Joonho Lee, David Small,
  Daniel Levine, Susi Lehtola, Hugh Burton, Evgeny Epifanovsky
 -----------------------------------------------------------------------
 Exchange:     0.2000 Hartree-Fock + 0.0800 Slater + 0.7200 B88
 Correlation:  0.1900 VWN1RPA + 0.8100 LYP
 Using SG-1 standard quadrature grid
 using 4 threads for integral computing
 -------------------------------------------------------
 OpenMP Integral computing Module                
 Release: version 1.0, May 2013, Q-Chem Inc. Pittsburgh 
 -------------------------------------------------------
 -------------------------------------------------------
 OpenMP BLAS3 based DFT computing Module                
 Release: version 1.0, May 2013, Q-Chem Inc. Pittsburgh 
 -------------------------------------------------------
 A restricted SCF calculation will be
 performed using DIIS
 SCF converges when DIIS error is below 1.0e-08
 ---------------------------------------
  Cycle       Energy         DIIS error
 ---------------------------------------
    1    -677.0179271588      2.13e-04  
    2    -677.0109886517      4.13e-05  
    3    -677.0109790797      5.39e-05  
    4    -677.0110030214      1.03e-05  
    5    -677.0110038184      2.65e-06  
    6    -677.0110038862      1.19e-06  
    7    -677.0110039026      3.50e-07  
    8    -677.0110039041      6.53e-08  
    9    -677.0110039041      2.37e-08  
   10    -677.0110039041      8.46e-09  Convergence criterion met
 ---------------------------------------
 SCF time:   CPU 100.45s  wall 25.00s 
 SCF   energy in the final basis set =     -677.0110039041
 Total energy in the final basis set =     -677.0110039041
 
 --------------------------------------------------------------
             Orbital Energies (a.u.) and Symmetries
 --------------------------------------------------------------
 
 Alpha MOs, Restricted
 -- Occupied --                  
-66.108 -19.117 -10.178 -10.177 -10.175 -10.174 -10.173 -10.164
  1 A'    2 A'    3 A'    4 A'    5 A'    6 A'    7 A'    8 A'                 
-10.150 -10.150  -5.278  -3.639  -3.636  -3.636  -0.998  -0.854
  9 A'    1 A"   10 A'   11 A'   12 A'    2 A"   13 A'   14 A'                 
 -0.748  -0.746  -0.708  -0.686  -0.606  -0.602  -0.547  -0.512
 15 A'   16 A'   17 A'    3 A"   18 A'   19 A'   20 A'   21 A'                 
 -0.461  -0.450  -0.433  -0.423  -0.420  -0.411  -0.404  -0.400
 22 A'   23 A'   24 A'   25 A'   26 A'   27 A'    4 A"    5 A"                 
 -0.388  -0.370  -0.349  -0.348  -0.339  -0.301  -0.293  -0.256
 28 A'    6 A"   29 A'    7 A"   30 A'   31 A'    8 A"    9 A"                 
 -0.255
 10 A"                                                                         
 -- Virtual --                   
 -0.024  -0.017  -0.014   0.007   0.014   0.021   0.030   0.035
 11 A"   32 A'   12 A"   33 A'   34 A'   13 A"   35 A'   36 A'                 
  0.048   0.057   0.058   0.063   0.065   0.069   0.076   0.088
 37 A'   38 A'   14 A"   39 A'   15 A"   40 A'   41 A'   16 A"                 
  0.091   0.098   0.099   0.101   0.106   0.113   0.114   0.124
 42 A'   43 A'   17 A"   18 A"   44 A'   45 A'   19 A"   46 A'                 
  0.129   0.135   0.142   0.146   0.152   0.152   0.162   0.168
 47 A'   20 A"   21 A"   48 A'   49 A'   22 A"   50 A'   51 A'                 
  0.170   0.178   0.181   0.183   0.193   0.199   0.200   0.207
 23 A"   52 A'   24 A"   53 A'   54 A'   25 A"   55 A'   56 A'                 
  0.212   0.219   0.224   0.227   0.229   0.233   0.236   0.242
 57 A'   58 A'   59 A'   26 A"   60 A'   61 A'   27 A"   62 A'                 
  0.249   0.261   0.266   0.273   0.276   0.288   0.299   0.306
 63 A'   64 A'   28 A"   65 A'   66 A'   67 A'   68 A'   29 A"                 
  0.314   0.326   0.331   0.334   0.336   0.354   0.373   0.386
 69 A'   70 A'   71 A'   30 A"   72 A'   73 A'   74 A'   75 A'                 
  0.391   0.398   0.450   0.463   0.492   0.511   0.515   0.520
 31 A"   76 A'   77 A'   78 A'   79 A'   32 A"   80 A'   81 A'                 
  0.530   0.536   0.536   0.546   0.555   0.559   0.566   0.586
 82 A'   33 A"   83 A'   84 A'   85 A'   34 A"   86 A'   35 A"                 
  0.596   0.610   0.610   0.620   0.638   0.643   0.659   0.665
 87 A'   88 A'   36 A"   37 A"   38 A"   89 A'   39 A"   90 A'                 
  0.676   0.676   0.679   0.692   0.706   0.709   0.725   0.730
 91 A'   40 A"   41 A"   92 A'   93 A'   94 A'   95 A'   96 A'                 
  0.747   0.756   0.767   0.776   0.800   0.823   0.827   0.836
 42 A"   97 A'   98 A'   43 A"   99 A'  100 A'  101 A'  102 A'                 
  0.847   0.851   0.866   0.869   0.890   0.899   0.915   0.921
103 A'   44 A"  104 A'  105 A'  106 A'  107 A'  108 A'   45 A"                 
  0.927   0.975   1.002   1.021   1.024   1.062   1.081   1.088
109 A'  110 A'   46 A"   47 A"  111 A'   48 A"   49 A"   50 A"                 
  1.101   1.120   1.124   1.143   1.162   1.165   1.204   1.242
112 A'  113 A'   51 A"   52 A"   53 A"  114 A'  115 A'  116 A'                 
  1.267   1.269   1.312   1.357   1.396   1.444   1.456   1.468
117 A'   54 A"  118 A'  119 A'   55 A"  120 A'   56 A"  121 A'                 
  1.485   1.488   1.503   1.521   1.541   1.553   1.572   1.573
122 A'   57 A"  123 A'  124 A'  125 A'  126 A'   58 A"   59 A"                 
  1.586   1.591   1.591   1.605   1.616   1.643   1.652   1.667
127 A'   60 A"  128 A'  129 A'   61 A"   62 A"  130 A'  131 A'                 
  1.693   1.714   1.728   1.739   1.757   1.768   1.778   1.782
132 A'   63 A"  133 A'   64 A"   65 A"  134 A'   66 A"   67 A"                 
  1.791   1.800   1.835   1.862   1.876   1.922   1.933   1.949
135 A'  136 A'  137 A'  138 A'  139 A'   68 A"   69 A"  140 A'                 
  1.963   1.978   2.013   2.018   2.055   2.063   2.073   2.083
141 A'  142 A'  143 A'   70 A"  144 A'   71 A"  145 A'   72 A"                 
  2.105   2.126   2.173   2.196   2.241   2.247   2.293   2.328
146 A'  147 A'   73 A"   74 A"  148 A'  149 A'   75 A"  150 A'                 
  2.342   2.391   2.406   2.414   2.461   2.462   2.489   2.494
 76 A"  151 A'  152 A'  153 A'   77 A"  154 A'  155 A'   78 A"                 
  2.516   2.522   2.526   2.555   2.590   2.615   2.636   2.657
 79 A"  156 A'   80 A"  157 A'  158 A'  159 A'  160 A'   81 A"                 
  2.666   2.670   2.684   2.706   2.729   2.753   2.765   2.771
161 A'  162 A'   82 A"  163 A'  164 A'  165 A'  166 A'  167 A'                 
  2.796   2.812   2.827   2.845   2.872   2.880   2.889   2.920
 83 A"  168 A'   84 A"  169 A'   85 A"  170 A'   86 A"   87 A"                 
  2.939   2.976   3.077   3.094   3.116   3.124   3.170   3.286
171 A'   88 A"  172 A'   89 A"   90 A"  173 A'  174 A'   91 A"                 
  3.293   3.354   3.363   3.386   3.494   3.527   3.617   3.730
175 A'  176 A'  177 A'  178 A'  179 A'  180 A'  181 A'   92 A"                 
  3.748   3.768   3.786   3.804   3.891   3.996   4.047   4.149
 93 A"  182 A'  183 A'  184 A'  185 A'  186 A'  187 A'  188 A'                 
  4.165   4.845   5.026   5.109   5.557   5.886  11.508  11.533
189 A'  190 A'   94 A"  191 A'  192 A'  193 A'   95 A"  194 A'                 
 11.570  23.572  23.942  23.945  23.952  23.975  24.067  24.096
195 A'  196 A'   96 A"  197 A'  198 A'  199 A'  200 A'  201 A'                 
 24.191  49.935 141.314
202 A'  203 A'  204 A'                                                         
 
 Beta MOs, Restricted
 -- Occupied --                  
-66.108 -19.117 -10.178 -10.177 -10.175 -10.174 -10.173 -10.164
  1 A'    2 A'    3 A'    4 A'    5 A'    6 A'    7 A'    8 A'                 
-10.150 -10.150  -5.278  -3.639  -3.636  -3.636  -0.998  -0.854
  9 A'    1 A"   10 A'   11 A'   12 A'    2 A"   13 A'   14 A'                 
 -0.748  -0.746  -0.708  -0.686  -0.606  -0.602  -0.547  -0.512
 15 A'   16 A'   17 A'    3 A"   18 A'   19 A'   20 A'   21 A'                 
 -0.461  -0.450  -0.433  -0.423  -0.420  -0.411  -0.404  -0.400
 22 A'   23 A'   24 A'   25 A'   26 A'   27 A'    4 A"    5 A"                 
 -0.388  -0.370  -0.349  -0.348  -0.339  -0.301  -0.293  -0.256
 28 A'    6 A"   29 A'    7 A"   30 A'   31 A'    8 A"    9 A"                 
 -0.255
 10 A"                                                                         
 -- Virtual --                   
 -0.024  -0.017  -0.014   0.007   0.014   0.021   0.030   0.035
 11 A"   32 A'   12 A"   33 A'   34 A'   13 A"   35 A'   36 A'                 
  0.048   0.057   0.058   0.063   0.065   0.069   0.076   0.088
 37 A'   38 A'   14 A"   39 A'   15 A"   40 A'   41 A'   16 A"                 
  0.091   0.098   0.099   0.101   0.106   0.113   0.114   0.124
 42 A'   43 A'   17 A"   18 A"   44 A'   45 A'   19 A"   46 A'                 
  0.129   0.135   0.142   0.146   0.152   0.152   0.162   0.168
 47 A'   20 A"   21 A"   48 A'   49 A'   22 A"   50 A'   51 A'                 
  0.170   0.178   0.181   0.183   0.193   0.199   0.200   0.207
 23 A"   52 A'   24 A"   53 A'   54 A'   25 A"   55 A'   56 A'                 
  0.212   0.219   0.224   0.227   0.229   0.233   0.236   0.242
 57 A'   58 A'   59 A'   26 A"   60 A'   61 A'   27 A"   62 A'                 
  0.249   0.261   0.266   0.273   0.276   0.288   0.299   0.306
 63 A'   64 A'   28 A"   65 A'   66 A'   67 A'   68 A'   29 A"                 
  0.314   0.326   0.331   0.334   0.336   0.354   0.373   0.386
 69 A'   70 A'   71 A'   30 A"   72 A'   73 A'   74 A'   75 A'                 
  0.391   0.398   0.450   0.463   0.492   0.511   0.515   0.520
 31 A"   76 A'   77 A'   78 A'   79 A'   32 A"   80 A'   81 A'                 
  0.530   0.536   0.536   0.546   0.555   0.559   0.566   0.586
 82 A'   33 A"   83 A'   84 A'   85 A'   34 A"   86 A'   35 A"                 
  0.596   0.610   0.610   0.620   0.638   0.643   0.659   0.665
 87 A'   88 A'   36 A"   37 A"   38 A"   89 A'   39 A"   90 A'                 
  0.676   0.676   0.679   0.692   0.706   0.709   0.725   0.730
 91 A'   40 A"   41 A"   92 A'   93 A'   94 A'   95 A'   96 A'                 
  0.747   0.756   0.767   0.776   0.800   0.823   0.827   0.836
 42 A"   97 A'   98 A'   43 A"   99 A'  100 A'  101 A'  102 A'                 
  0.847   0.851   0.866   0.869   0.890   0.899   0.915   0.921
103 A'   44 A"  104 A'  105 A'  106 A'  107 A'  108 A'   45 A"                 
  0.927   0.975   1.002   1.021   1.024   1.062   1.081   1.088
109 A'  110 A'   46 A"   47 A"  111 A'   48 A"   49 A"   50 A"                 
  1.101   1.120   1.124   1.143   1.162   1.165   1.204   1.242
112 A'  113 A'   51 A"   52 A"   53 A"  114 A'  115 A'  116 A'                 
  1.267   1.269   1.312   1.357   1.396   1.444   1.456   1.468
117 A'   54 A"  118 A'  119 A'   55 A"  120 A'   56 A"  121 A'                 
  1.485   1.488   1.503   1.521   1.541   1.553   1.572   1.573
122 A'   57 A"  123 A'  124 A'  125 A'  126 A'   58 A"   59 A"                 
  1.586   1.591   1.591   1.605   1.616   1.643   1.652   1.667
127 A'   60 A"  128 A'  129 A'   61 A"   62 A"  130 A'  131 A'                 
  1.693   1.714   1.728   1.739   1.757   1.768   1.778   1.782
132 A'   63 A"  133 A'   64 A"   65 A"  134 A'   66 A"   67 A"                 
  1.791   1.800   1.835   1.862   1.876   1.922   1.933   1.949
135 A'  136 A'  137 A'  138 A'  139 A'   68 A"   69 A"  140 A'                 
  1.963   1.978   2.013   2.018   2.055   2.063   2.073   2.083
141 A'  142 A'  143 A'   70 A"  144 A'   71 A"  145 A'   72 A"                 
  2.105   2.126   2.173   2.196   2.241   2.247   2.293   2.328
146 A'  147 A'   73 A"   74 A"  148 A'  149 A'   75 A"  150 A'                 
  2.342   2.391   2.406   2.414   2.461   2.462   2.489   2.494
 76 A"  151 A'  152 A'  153 A'   77 A"  154 A'  155 A'   78 A"                 
  2.516   2.522   2.526   2.555   2.590   2.615   2.636   2.657
 79 A"  156 A'   80 A"  157 A'  158 A'  159 A'  160 A'   81 A"                 
  2.666   2.670   2.684   2.706   2.729   2.753   2.765   2.771
161 A'  162 A'   82 A"  163 A'  164 A'  165 A'  166 A'  167 A'                 
  2.796   2.812   2.827   2.845   2.872   2.880   2.889   2.920
 83 A"  168 A'   84 A"  169 A'   85 A"  170 A'   86 A"   87 A"                 
  2.939   2.976   3.077   3.094   3.116   3.124   3.170   3.286
171 A'   88 A"  172 A'   89 A"   90 A"  173 A'  174 A'   91 A"                 
  3.293   3.354   3.363   3.386   3.494   3.527   3.617   3.730
175 A'  176 A'  177 A'  178 A'  179 A'  180 A'  181 A'   92 A"                 
  3.748   3.768   3.786   3.804   3.891   3.996   4.047   4.149
 93 A"  182 A'  183 A'  184 A'  185 A'  186 A'  187 A'  188 A'                 
  4.165   4.845   5.026   5.109   5.557   5.886  11.508  11.533
189 A'  190 A'   94 A"  191 A'  192 A'  193 A'   95 A"  194 A'                 
 11.570  23.572  23.942  23.945  23.952  23.975  24.067  24.096
195 A'  196 A'   96 A"  197 A'  198 A'  199 A'  200 A'  201 A'                 
 24.191  49.935 141.314
202 A'  203 A'  204 A'                                                         
 --------------------------------------------------------------
 
          Ground-State Mulliken Net Atomic Charges

     Atom                 Charge (a.u.)
  ----------------------------------------
      1 C                    -0.099469
      2 C                    -0.313119
      3 C                     0.077117
      4 C                    -0.209403
      5 C                    -0.045936
      6 C                    -0.423018
      7 Si                    1.286141
      8 C                    -0.818298
      9 C                    -0.818298
     10 O                    -0.526375
     11 H                     0.154985
     12 H                     0.123762
     13 H                     0.125106
     14 H                     0.122018
     15 H                     0.115393
     16 H                     0.160646
     17 H                     0.161534
     18 H                     0.177129
     19 H                     0.160646
     20 H                     0.177129
     21 H                     0.161534
     22 H                     0.250775
  ----------------------------------------
  Sum of atomic charges =    -0.000000

 -----------------------------------------------------------------
                    Cartesian Multipole Moments
 -----------------------------------------------------------------
    Charge (ESU x 10^10)
                -0.0000
    Dipole Moment (Debye)
         X      -1.1702      Y      -0.8419      Z      -0.0000
       Tot       1.4416
    Quadrupole Moments (Debye-Ang)
        XX     -58.1035     XY      -1.3563     YY     -66.5837
        XZ       0.0000     YZ       0.0000     ZZ     -72.7291
    Octopole Moments (Debye-Ang^2)
       XXX     -18.2955    XXY      16.2891    XYY       1.4859
       YYY       2.4958    XXZ      -0.0000    XYZ      -0.0000
       YYZ      -0.0000    XZZ      -8.4178    YZZ       4.9484
       ZZZ      -0.0000
    Hexadecapole Moments (Debye-Ang^3)
      XXXX   -1615.8430   XXXY     -70.1978   XXYY    -352.6391
      XYYY     -20.6995   YYYY    -508.1728   XXXZ       0.0000
      XXYZ       0.0000   XYYZ      -0.0000   YYYZ       0.0000
      XXZZ    -394.3097   XYZZ      -9.9356   YYZZ    -157.3090
      XZZZ       0.0000   YZZZ       0.0000   ZZZZ    -345.9738
 -----------------------------------------------------------------
 Calculating analytic gradient of the SCF energy
 Gradient of SCF Energy
            1           2           3           4           5           6
    1  -0.0002360   0.0003042  -0.0000956  -0.0001763  -0.0001519   0.0003690
    2  -0.0002383  -0.0002769  -0.0000375   0.0000084   0.0000920   0.0001531
    3   0.0000000  -0.0000000  -0.0000000   0.0000000   0.0000000   0.0000000
            7           8           9          10          11          12
    1  -0.0002835  -0.0000195  -0.0000195   0.0017322   0.0000309  -0.0000275
    2   0.0003554  -0.0001415  -0.0001415   0.0013237   0.0000069  -0.0000686
    3  -0.0000000  -0.0002316   0.0002316  -0.0000000   0.0000000  -0.0000000
           13          14          15          16          17          18
    1  -0.0000408  -0.0000161   0.0000039  -0.0001053  -0.0000106  -0.0000120
    2   0.0000046   0.0000664   0.0000478  -0.0001161   0.0000594   0.0000332
    3  -0.0000000   0.0000000  -0.0000000   0.0002084  -0.0000579   0.0000773
           19          20          21          22
    1  -0.0001053  -0.0000120  -0.0000106  -0.0011178
    2  -0.0001161   0.0000332   0.0000594  -0.0011072
    3  -0.0002084  -0.0000773   0.0000579   0.0000000
 Max gradient component =       1.732E-03
 RMS gradient           =       3.541E-04
 Gradient time:  CPU 41.94 s  wall 10.50 s
 Geometry Optimization Parameters
   NAtoms,    NIC,     NZ,  NCons,   NDum,   NFix, NCnnct, MaxDiis
       22     154       0       0       0       0       0       0

 Cartesian Hessian Update
 Hessian Updated using BFGS Update


** GEOMETRY OPTIMIZATION IN DELOCALIZED INTERNAL COORDINATES **
   Searching for a Minimum

   Optimization Cycle:   2

                       Coordinates (Angstroms)
     ATOM                X               Y               Z
      1  C         0.4183022760    0.0090771539    0.0000000000
      2  C         1.1701930390    1.1946704252    0.0000000000
      3  C         2.5640585296    1.1616873715    0.0000000000
      4  C         3.2355184099   -0.0593200992    0.0000000000
      5  C         2.5076650414   -1.2485012401    0.0000000000
      6  C         1.1150817537   -1.2104063188    0.0000000000
      7  Si       -1.4605406070    0.0486623452    0.0000000000
      8  C        -2.1643052147   -0.7865848932    1.5343369668
      9  C        -2.1643052147   -0.7865848932   -1.5343369668
     10  O        -1.8343839708    1.6881978626    0.0000000000
     11  H         0.6560252095    2.1495387351    0.0000000000
     12  H         3.1261389123    2.0894033438    0.0000000000
     13  H         4.3197684212   -0.0853870126    0.0000000000
     14  H         3.0242156046   -2.2022180892    0.0000000000
     15  H         0.5684433601   -2.1494720380    0.0000000000
     16  H        -3.2576817858   -0.7234586704    1.5600780935
     17  H        -1.8999781537   -1.8485854581    1.5582525234
     18  H        -1.7773991239   -0.3252718274    2.4471007546
     19  H        -3.2576817858   -0.7234586704   -1.5600780935
     20  H        -1.7773991239   -0.3252718274   -2.4471007546
     21  H        -1.8999781537   -1.8485854581   -1.5582525234
     22  H        -2.7636221063    1.9302937203    0.0000000000
   Point Group: cs    Number of degrees of freedom:    37


   Energy is   -677.011003904

 Hessian Updated using BFGS Update

 30 Hessian modes will be used to form the next step
  Hessian Eigenvalues:
     0.002596    0.046019    0.053730    0.054257    0.060352    0.115137
     0.160892    0.177211    0.205451    0.208270    0.219994    0.220017
     0.234370    0.249994    0.339190    0.340973    0.343200    0.349498
     0.351247    0.351323    0.351970    0.363011    0.386573    0.413847
     0.415779    0.449688    0.460137    0.462749    0.487804    0.547541

 Minimum Search - Taking Simple RFO Step
 Searching for Lamda that Minimizes Along All modes
 Value Taken    Lamda =  -0.00006775
 Step Taken.  Stepsize is  0.027156

                             Maximum     Tolerance    Cnvgd?
         Gradient           0.001275      0.000020      NO
         Displacement       0.013984      0.000120      NO
         Energy change     -0.000249      0.000000      NO


 New Cartesian Coordinates Obtained by Inverse Iteration

 Displacement from previous Coordinates is:  0.049721
 ----------------------------------------------------------------
             Standard Nuclear Orientation (Angstroms)
    I     Atom           X                Y                Z
 ----------------------------------------------------------------
    1      C       0.4188765904     0.0059986310     0.0000000000
    2      C       1.1678832873     1.1932632435     0.0000000000
    3      C       2.5619180943     1.1624934297     0.0000000000
    4      C       3.2356237378    -0.0573747177     0.0000000000
    5      C       2.5099335246    -1.2479585655     0.0000000000
    6      C       1.1171212885    -1.2124829447     0.0000000000
    7      Si     -1.4602447089     0.0424754904     0.0000000000
    8      C      -2.1653538751    -0.7880975130     1.5350638386
    9      C      -2.1653538751    -0.7880975130    -1.5350638386
   10      O      -1.8317349112     1.6826244308     0.0000000000
   11      H       0.6517109985     2.1468057078     0.0000000000
   12      H       3.1222356522     2.0910967818     0.0000000000
   13      H       4.3197008045    -0.0814846646     0.0000000000
   14      H       3.0280385573    -2.2006384155     0.0000000000
   15      H       0.5722721199    -2.1523470084     0.0000000000
   16      H      -3.2580576089    -0.7202332500     1.5578964577
   17      H      -1.9047129982    -1.8507937522     1.5613577962
   18      H      -1.7778038617    -0.3260534051     2.4467145763
   19      H      -3.2580576089    -0.7202332500    -1.5578964577
   20      H      -1.7778038617    -0.3260534051    -2.4467145763
   21      H      -1.9047129982    -1.8507937522    -1.5613577962
   22      H      -2.7533430304     1.9463089034     0.0000000000
 ----------------------------------------------------------------
 Molecular Point Group                 Cs    NOp =  2
 Largest Abelian Subgroup              Cs    NOp =  2
 Nuclear Repulsion Energy =   591.7958324935 hartrees
 There are       41 alpha and       41 beta electrons
 Applying Cartesian multipole field
    Component          Value
    ---------          -----
     (2,0,0)        1.00000E-11
     (0,2,0)        2.00000E-11
     (0,0,2)       -3.00000E-11
 Nucleus-field energy     =     0.0000000140 hartrees
 Requested basis set is 6-311+G(d,p)
 There are 115 shells and 300 basis functions
 A cutoff of  1.0D-11 yielded   5515 shell pairs
 There are     39061 function pairs (     41667 Cartesian)
 Smallest overlap matrix eigenvalue = 2.48E-06

 Q-Chem warning in module stvman/mkSTV.C, line 295:

 Overlap eigenvalue is smaller than square root of threshold

 Guess MOs from SCF MO coefficient file
 Reading MOs from coefficient file
 Reading MOs from coefficient file

 -----------------------------------------------------------------------
  General SCF calculation program by
  Eric Jon Sundstrom, Paul Horn, Yuezhi Mao, Dmitri Zuev, Alec White,
  David Stuck, Shaama M.S., Shane Yost, Joonho Lee, David Small,
  Daniel Levine, Susi Lehtola, Hugh Burton, Evgeny Epifanovsky
 -----------------------------------------------------------------------
 Exchange:     0.2000 Hartree-Fock + 0.0800 Slater + 0.7200 B88
 Correlation:  0.1900 VWN1RPA + 0.8100 LYP
 Using SG-1 standard quadrature grid
 using 4 threads for integral computing
 -------------------------------------------------------
 OpenMP Integral computing Module                
 Release: version 1.0, May 2013, Q-Chem Inc. Pittsburgh 
 -------------------------------------------------------
 -------------------------------------------------------
 OpenMP BLAS3 based DFT computing Module                
 Release: version 1.0, May 2013, Q-Chem Inc. Pittsburgh 
 -------------------------------------------------------
 A restricted SCF calculation will be
 performed using DIIS
 SCF converges when DIIS error is below 1.0e-08
 ---------------------------------------
  Cycle       Energy         DIIS error
 ---------------------------------------
    1    -677.0075989438      1.14e-04  
    2    -677.0110344071      3.62e-05  
    3    -677.0110323120      4.06e-05  
    4    -677.0110475053      7.79e-06  
    5    -677.0110479436      2.82e-06  
    6    -677.0110480221      7.10e-07  
    7    -677.0110480271      3.37e-07  
    8    -677.0110480285      7.20e-08  
    9    -677.0110480285      1.36e-08  
   10    -677.0110480285      4.73e-09  Convergence criterion met
 ---------------------------------------
 SCF time:   CPU 102.17s  wall 25.00s 
 SCF   energy in the final basis set =     -677.0110480285
 Total energy in the final basis set =     -677.0110480285
 
 --------------------------------------------------------------
             Orbital Energies (a.u.) and Symmetries
 --------------------------------------------------------------
 
 Alpha MOs, Restricted
 -- Occupied --                  
-66.108 -19.116 -10.178 -10.177 -10.175 -10.174 -10.173 -10.164
  1 A'    2 A'    3 A'    4 A'    5 A'    6 A'    7 A'    8 A'                 
-10.150 -10.150  -5.278  -3.639  -3.636  -3.635  -0.998  -0.854
  9 A'    1 A"   10 A'   11 A'   12 A'    2 A"   13 A'   14 A'                 
 -0.748  -0.746  -0.708  -0.686  -0.606  -0.602  -0.548  -0.512
 15 A'   16 A'   17 A'    3 A"   18 A'   19 A'   20 A'   21 A'                 
 -0.460  -0.450  -0.432  -0.423  -0.420  -0.410  -0.404  -0.400
 22 A'   23 A'   24 A'   25 A'   26 A'   27 A'    4 A"    5 A"                 
 -0.388  -0.370  -0.349  -0.348  -0.339  -0.300  -0.293  -0.256
 28 A'    6 A"   29 A'    7 A"   30 A'   31 A'    8 A"    9 A"                 
 -0.254
 10 A"                                                                         
 -- Virtual --                   
 -0.023  -0.016  -0.014   0.007   0.014   0.021   0.030   0.035
 11 A"   32 A'   12 A"   33 A'   34 A'   13 A"   35 A'   36 A'                 
  0.048   0.057   0.058   0.063   0.065   0.069   0.076   0.088
 37 A'   38 A'   14 A"   39 A'   15 A"   40 A'   41 A'   16 A"                 
  0.091   0.099   0.099   0.101   0.106   0.113   0.114   0.125
 42 A'   43 A'   17 A"   18 A"   44 A'   45 A'   19 A"   46 A'                 
  0.129   0.135   0.142   0.146   0.152   0.152   0.162   0.168
 47 A'   20 A"   21 A"   48 A'   49 A'   22 A"   50 A'   51 A'                 
  0.170   0.178   0.181   0.183   0.193   0.199   0.200   0.208
 23 A"   52 A'   24 A"   53 A'   54 A'   25 A"   55 A'   56 A'                 
  0.213   0.219   0.224   0.227   0.229   0.233   0.236   0.242
 57 A'   58 A'   59 A'   26 A"   60 A'   61 A'   27 A"   62 A'                 
  0.249   0.261   0.266   0.273   0.276   0.288   0.299   0.307
 63 A'   64 A'   28 A"   65 A'   66 A'   67 A'   68 A'   29 A"                 
  0.314   0.326   0.331   0.334   0.336   0.355   0.372   0.386
 69 A'   70 A'   71 A'   30 A"   72 A'   73 A'   74 A'   75 A'                 
  0.391   0.398   0.450   0.463   0.492   0.511   0.515   0.520
 31 A"   76 A'   77 A'   78 A'   79 A'   32 A"   80 A'   81 A'                 
  0.530   0.536   0.536   0.546   0.555   0.559   0.568   0.586
 82 A'   33 A"   83 A'   84 A'   85 A'   34 A"   86 A'   35 A"                 
  0.597   0.610   0.610   0.620   0.638   0.643   0.659   0.664
 87 A'   88 A'   36 A"   37 A"   38 A"   89 A'   39 A"   90 A'                 
  0.676   0.676   0.679   0.693   0.706   0.709   0.725   0.730
 40 A"   91 A'   41 A"   92 A'   93 A'   94 A'   95 A'   96 A'                 
  0.746   0.756   0.767   0.777   0.800   0.824   0.827   0.836
 42 A"   97 A'   98 A'   43 A"   99 A'  100 A'  101 A'  102 A'                 
  0.848   0.851   0.866   0.869   0.890   0.899   0.915   0.921
103 A'   44 A"  104 A'  105 A'  106 A'  107 A'  108 A'   45 A"                 
  0.927   0.975   1.002   1.021   1.024   1.063   1.082   1.089
109 A'  110 A'   46 A"   47 A"  111 A'   48 A"   49 A"   50 A"                 
  1.101   1.121   1.125   1.143   1.162   1.166   1.205   1.242
112 A'  113 A'   51 A"   52 A"   53 A"  114 A'  115 A'  116 A'                 
  1.266   1.270   1.313   1.358   1.396   1.447   1.456   1.469
117 A'   54 A"  118 A'  119 A'   55 A"  120 A'   56 A"  121 A'                 
  1.485   1.491   1.504   1.521   1.542   1.553   1.572   1.573
122 A'   57 A"  123 A'  124 A'  125 A'  126 A'   58 A"   59 A"                 
  1.586   1.591   1.591   1.605   1.616   1.644   1.652   1.667
127 A'   60 A"  128 A'  129 A'   61 A"   62 A"  130 A'  131 A'                 
  1.693   1.714   1.729   1.740   1.758   1.768   1.779   1.783
132 A'   63 A"  133 A'   64 A"   65 A"  134 A'   66 A"   67 A"                 
  1.792   1.800   1.835   1.863   1.879   1.922   1.933   1.949
135 A'  136 A'  137 A'  138 A'  139 A'   68 A"   69 A"  140 A'                 
  1.963   1.979   2.013   2.018   2.054   2.062   2.074   2.084
141 A'  142 A'  143 A'   70 A"  144 A'   71 A"  145 A'   72 A"                 
  2.105   2.127   2.173   2.197   2.241   2.248   2.293   2.329
146 A'  147 A'   73 A"   74 A"  148 A'  149 A'   75 A"  150 A'                 
  2.343   2.392   2.406   2.415   2.462   2.463   2.489   2.494
 76 A"  151 A'  152 A'  153 A'   77 A"  154 A'  155 A'   78 A"                 
  2.517   2.523   2.527   2.554   2.591   2.615   2.637   2.657
 79 A"  156 A'   80 A"  157 A'  158 A'  159 A'  160 A'   81 A"                 
  2.666   2.671   2.684   2.706   2.729   2.753   2.764   2.771
161 A'  162 A'   82 A"  163 A'  164 A'  165 A'  166 A'  167 A'                 
  2.796   2.813   2.827   2.845   2.871   2.880   2.889   2.919
 83 A"  168 A'   84 A"  169 A'   85 A"  170 A'   86 A"   87 A"                 
  2.939   2.976   3.070   3.094   3.119   3.125   3.170   3.287
171 A'   88 A"  172 A'   89 A"   90 A"  173 A'  174 A'   91 A"                 
  3.294   3.354   3.366   3.386   3.494   3.527   3.618   3.731
175 A'  176 A'  177 A'  178 A'  179 A'  180 A'  181 A'   92 A"                 
  3.749   3.769   3.786   3.804   3.893   3.997   4.047   4.150
 93 A"  182 A'  183 A'  184 A'  185 A'  186 A'  187 A'  188 A'                 
  4.165   4.846   5.027   5.110   5.561   5.886  11.509  11.532
189 A'  190 A'   94 A"  191 A'  192 A'  193 A'   95 A"  194 A'                 
 11.571  23.572  23.943  23.946  23.953  23.976  24.067  24.096
195 A'  196 A'   96 A"  197 A'  198 A'  199 A'  200 A'  201 A'                 
 24.191  49.936 141.314
202 A'  203 A'  204 A'                                                         
 
 Beta MOs, Restricted
 -- Occupied --                  
-66.108 -19.116 -10.178 -10.177 -10.175 -10.174 -10.173 -10.164
  1 A'    2 A'    3 A'    4 A'    5 A'    6 A'    7 A'    8 A'                 
-10.150 -10.150  -5.278  -3.639  -3.636  -3.635  -0.998  -0.854
  9 A'    1 A"   10 A'   11 A'   12 A'    2 A"   13 A'   14 A'                 
 -0.748  -0.746  -0.708  -0.686  -0.606  -0.602  -0.548  -0.512
 15 A'   16 A'   17 A'    3 A"   18 A'   19 A'   20 A'   21 A'                 
 -0.460  -0.450  -0.432  -0.423  -0.420  -0.410  -0.404  -0.400
 22 A'   23 A'   24 A'   25 A'   26 A'   27 A'    4 A"    5 A"                 
 -0.388  -0.370  -0.349  -0.348  -0.339  -0.300  -0.293  -0.256
 28 A'    6 A"   29 A'    7 A"   30 A'   31 A'    8 A"    9 A"                 
 -0.254
 10 A"                                                                         
 -- Virtual --                   
 -0.023  -0.016  -0.014   0.007   0.014   0.021   0.030   0.035
 11 A"   32 A'   12 A"   33 A'   34 A'   13 A"   35 A'   36 A'                 
  0.048   0.057   0.058   0.063   0.065   0.069   0.076   0.088
 37 A'   38 A'   14 A"   39 A'   15 A"   40 A'   41 A'   16 A"                 
  0.091   0.099   0.099   0.101   0.106   0.113   0.114   0.125
 42 A'   43 A'   17 A"   18 A"   44 A'   45 A'   19 A"   46 A'                 
  0.129   0.135   0.142   0.146   0.152   0.152   0.162   0.168
 47 A'   20 A"   21 A"   48 A'   49 A'   22 A"   50 A'   51 A'                 
  0.170   0.178   0.181   0.183   0.193   0.199   0.200   0.208
 23 A"   52 A'   24 A"   53 A'   54 A'   25 A"   55 A'   56 A'                 
  0.213   0.219   0.224   0.227   0.229   0.233   0.236   0.242
 57 A'   58 A'   59 A'   26 A"   60 A'   61 A'   27 A"   62 A'                 
  0.249   0.261   0.266   0.273   0.276   0.288   0.299   0.307
 63 A'   64 A'   28 A"   65 A'   66 A'   67 A'   68 A'   29 A"                 
  0.314   0.326   0.331   0.334   0.336   0.355   0.372   0.386
 69 A'   70 A'   71 A'   30 A"   72 A'   73 A'   74 A'   75 A'                 
  0.391   0.398   0.450   0.463   0.492   0.511   0.515   0.520
 31 A"   76 A'   77 A'   78 A'   79 A'   32 A"   80 A'   81 A'                 
  0.530   0.536   0.536   0.546   0.555   0.559   0.568   0.586
 82 A'   33 A"   83 A'   84 A'   85 A'   34 A"   86 A'   35 A"                 
  0.597   0.610   0.610   0.620   0.638   0.643   0.659   0.664
 87 A'   88 A'   36 A"   37 A"   38 A"   89 A'   39 A"   90 A'                 
  0.676   0.676   0.679   0.693   0.706   0.709   0.725   0.730
 40 A"   91 A'   41 A"   92 A'   93 A'   94 A'   95 A'   96 A'                 
  0.746   0.756   0.767   0.777   0.800   0.824   0.827   0.836
 42 A"   97 A'   98 A'   43 A"   99 A'  100 A'  101 A'  102 A'                 
  0.848   0.851   0.866   0.869   0.890   0.899   0.915   0.921
103 A'   44 A"  104 A'  105 A'  106 A'  107 A'  108 A'   45 A"                 
  0.927   0.975   1.002   1.021   1.024   1.063   1.082   1.089
109 A'  110 A'   46 A"   47 A"  111 A'   48 A"   49 A"   50 A"                 
  1.101   1.121   1.125   1.143   1.162   1.166   1.205   1.242
112 A'  113 A'   51 A"   52 A"   53 A"  114 A'  115 A'  116 A'                 
  1.266   1.270   1.313   1.358   1.396   1.447   1.456   1.469
117 A'   54 A"  118 A'  119 A'   55 A"  120 A'   56 A"  121 A'                 
  1.485   1.491   1.504   1.521   1.542   1.553   1.572   1.573
122 A'   57 A"  123 A'  124 A'  125 A'  126 A'   58 A"   59 A"                 
  1.586   1.591   1.591   1.605   1.616   1.644   1.652   1.667
127 A'   60 A"  128 A'  129 A'   61 A"   62 A"  130 A'  131 A'                 
  1.693   1.714   1.729   1.740   1.758   1.768   1.779   1.783
132 A'   63 A"  133 A'   64 A"   65 A"  134 A'   66 A"   67 A"                 
  1.792   1.800   1.835   1.863   1.879   1.922   1.933   1.949
135 A'  136 A'  137 A'  138 A'  139 A'   68 A"   69 A"  140 A'                 
  1.963   1.979   2.013   2.018   2.054   2.062   2.074   2.084
141 A'  142 A'  143 A'   70 A"  144 A'   71 A"  145 A'   72 A"                 
  2.105   2.127   2.173   2.197   2.241   2.248   2.293   2.329
146 A'  147 A'   73 A"   74 A"  148 A'  149 A'   75 A"  150 A'                 
  2.343   2.392   2.406   2.415   2.462   2.463   2.489   2.494
 76 A"  151 A'  152 A'  153 A'   77 A"  154 A'  155 A'   78 A"                 
  2.517   2.523   2.527   2.554   2.591   2.615   2.637   2.657
 79 A"  156 A'   80 A"  157 A'  158 A'  159 A'  160 A'   81 A"                 
  2.666   2.671   2.684   2.706   2.729   2.753   2.764   2.771
161 A'  162 A'   82 A"  163 A'  164 A'  165 A'  166 A'  167 A'                 
  2.796   2.813   2.827   2.845   2.871   2.880   2.889   2.919
 83 A"  168 A'   84 A"  169 A'   85 A"  170 A'   86 A"   87 A"                 
  2.939   2.976   3.070   3.094   3.119   3.125   3.170   3.287
171 A'   88 A"  172 A'   89 A"   90 A"  173 A'  174 A'   91 A"                 
  3.294   3.354   3.366   3.386   3.494   3.527   3.618   3.731
175 A'  176 A'  177 A'  178 A'  179 A'  180 A'  181 A'   92 A"                 
  3.749   3.769   3.786   3.804   3.893   3.997   4.047   4.150
 93 A"  182 A'  183 A'  184 A'  185 A'  186 A'  187 A'  188 A'                 
  4.165   4.846   5.027   5.110   5.561   5.886  11.509  11.532
189 A'  190 A'   94 A"  191 A'  192 A'  193 A'   95 A"  194 A'                 
 11.571  23.572  23.943  23.946  23.953  23.976  24.067  24.096
195 A'  196 A'   96 A"  197 A'  198 A'  199 A'  200 A'  201 A'                 
 24.191  49.936 141.314
202 A'  203 A'  204 A'                                                         
 --------------------------------------------------------------
 
          Ground-State Mulliken Net Atomic Charges

     Atom                 Charge (a.u.)
  ----------------------------------------
      1 C                    -0.108434
      2 C                    -0.310652
      3 C                     0.080287
      4 C                    -0.208771
      5 C                    -0.047577
      6 C                    -0.420049
      7 Si                    1.290865
      8 C                    -0.817485
      9 C                    -0.817485
     10 O                    -0.535304
     11 H                     0.155538
     12 H                     0.123698
     13 H                     0.125043
     14 H                     0.121978
     15 H                     0.115415
     16 H                     0.160795
     17 H                     0.161441
     18 H                     0.177146
     19 H                     0.160795
     20 H                     0.177146
     21 H                     0.161441
     22 H                     0.254171
  ----------------------------------------
  Sum of atomic charges =    -0.000000

 -----------------------------------------------------------------
                    Cartesian Multipole Moments
 -----------------------------------------------------------------
    Charge (ESU x 10^10)
                -0.0000
    Dipole Moment (Debye)
         X      -1.1800      Y      -0.8145      Z      -0.0000
       Tot       1.4338
    Quadrupole Moments (Debye-Ang)
        XX     -58.1513     XY      -1.4414     YY     -66.4271
        XZ      -0.0000     YZ      -0.0000     ZZ     -72.7259
    Octopole Moments (Debye-Ang^2)
       XXX     -18.1714    XXY      16.5884    XYY       1.0387
       YYY       3.3453    XXZ       0.0000    XYZ       0.0000
       YYZ      -0.0000    XZZ      -8.4213    YZZ       5.0764
       ZZZ      -0.0000
    Hexadecapole Moments (Debye-Ang^3)
      XXXX   -1617.1100   XXXY     -71.0240   XXYY    -351.6996
      XYYY     -22.5442   YYYY    -506.4934   XXXZ      -0.0000
      XXYZ      -0.0000   XYYZ      -0.0000   YYYZ      -0.0000
      XXZZ    -394.4175   XYZZ     -10.1611   YYZZ    -157.2746
      XZZZ      -0.0000   YZZZ      -0.0000   ZZZZ    -346.0921
 -----------------------------------------------------------------
 Calculating analytic gradient of the SCF energy
 Gradient of SCF Energy
            1           2           3           4           5           6
    1   0.0001900  -0.0000577   0.0000078   0.0000503  -0.0000275  -0.0000082
    2  -0.0001211  -0.0000387   0.0000202   0.0000214   0.0000006  -0.0000526
    3  -0.0000000   0.0000000  -0.0000000   0.0000000  -0.0000000   0.0000000
            7           8           9          10          11          12
    1   0.0000480  -0.0001402  -0.0001402  -0.0002553   0.0000923  -0.0001070
    2  -0.0009153   0.0001415   0.0001415   0.0012824  -0.0000676  -0.0001528
    3  -0.0000000  -0.0000044   0.0000044  -0.0000000  -0.0000000  -0.0000000
           13          14          15          16          17          18
    1  -0.0001868  -0.0000974   0.0000959   0.0001730   0.0000157  -0.0000605
    2   0.0000043   0.0001590   0.0001466  -0.0000491   0.0001653  -0.0000797
    3   0.0000000   0.0000000  -0.0000000   0.0000517  -0.0001032  -0.0000995
           19          20          21          22
    1   0.0001730  -0.0000605   0.0000157   0.0002796
    2  -0.0000491  -0.0000797   0.0001653  -0.0006423
    3  -0.0000517   0.0000995   0.0001032   0.0000000
 Max gradient component =       1.282E-03
 RMS gradient           =       2.308E-04
 Gradient time:  CPU 42.75 s  wall 10.71 s
 Geometry Optimization Parameters
   NAtoms,    NIC,     NZ,  NCons,   NDum,   NFix, NCnnct, MaxDiis
       22     154       0       0       0       0       0       0

 Cartesian Hessian Update
 Hessian Updated using BFGS Update


** GEOMETRY OPTIMIZATION IN DELOCALIZED INTERNAL COORDINATES **
   Searching for a Minimum

   Optimization Cycle:   3

                       Coordinates (Angstroms)
     ATOM                X               Y               Z
      1  C         0.4188765904    0.0059986310    0.0000000000
      2  C         1.1678832873    1.1932632435    0.0000000000
      3  C         2.5619180943    1.1624934297    0.0000000000
      4  C         3.2356237378   -0.0573747177    0.0000000000
      5  C         2.5099335246   -1.2479585655    0.0000000000
      6  C         1.1171212885   -1.2124829447    0.0000000000
      7  Si       -1.4602447089    0.0424754904    0.0000000000
      8  C        -2.1653538751   -0.7880975130    1.5350638386
      9  C        -2.1653538751   -0.7880975130   -1.5350638386
     10  O        -1.8317349112    1.6826244308    0.0000000000
     11  H         0.6517109985    2.1468057078    0.0000000000
     12  H         3.1222356522    2.0910967818    0.0000000000
     13  H         4.3197008045   -0.0814846646    0.0000000000
     14  H         3.0280385573   -2.2006384155    0.0000000000
     15  H         0.5722721199   -2.1523470084    0.0000000000
     16  H        -3.2580576089   -0.7202332500    1.5578964577
     17  H        -1.9047129982   -1.8507937522    1.5613577962
     18  H        -1.7778038617   -0.3260534051    2.4467145763
     19  H        -3.2580576089   -0.7202332500   -1.5578964577
     20  H        -1.7778038617   -0.3260534051   -2.4467145763
     21  H        -1.9047129982   -1.8507937522   -1.5613577962
     22  H        -2.7533430304    1.9463089034    0.0000000000
   Point Group: cs    Number of degrees of freedom:    37


   Energy is   -677.011048029

 Hessian Updated using BFGS Update

 31 Hessian modes will be used to form the next step
  Hessian Eigenvalues:
     0.002597    0.043898    0.053479    0.054152    0.058409    0.080413
     0.160340    0.161430    0.177431    0.207080    0.208257    0.219994
     0.220087    0.235586    0.250106    0.339965    0.340939    0.344025
     0.349521    0.351247    0.351327    0.351968    0.363312    0.393675
     0.414502    0.415789    0.449688    0.460142    0.462750    0.482557
     0.573474

 Minimum Search - Taking Simple RFO Step
 Searching for Lamda that Minimizes Along All modes
 Value Taken    Lamda =  -0.00001808
 Step Taken.  Stepsize is  0.015773

                             Maximum     Tolerance    Cnvgd?
         Gradient           0.000574      0.000020      NO
         Displacement       0.007579      0.000120      NO
         Energy change     -0.000044      0.000000      NO


 New Cartesian Coordinates Obtained by Inverse Iteration

 Displacement from previous Coordinates is:  0.029324
 ----------------------------------------------------------------
             Standard Nuclear Orientation (Angstroms)
    I     Atom           X                Y                Z
 ----------------------------------------------------------------
    1      C       0.4187350305     0.0050739556     0.0000000000
    2      C       1.1669394087     1.1929420107     0.0000000000
    3      C       2.5611482493     1.1630551011     0.0000000000
    4      C       3.2357477834    -0.0564477442     0.0000000000
    5      C       2.5108737288    -1.2476156173     0.0000000000
    6      C       1.1178506421    -1.2130055791     0.0000000000
    7      Si     -1.4606875087     0.0399807738     0.0000000000
    8      C      -2.1658896187    -0.7896468744     1.5358632848
    9      C      -2.1658896187    -0.7896468744    -1.5358632848
   10      O      -1.8298069071     1.6795501004     0.0000000000
   11      H       0.6496461195     2.1459325499     0.0000000000
   12      H       3.1210234518     2.0921574819     0.0000000000
   13      H       4.3200286767    -0.0797859502     0.0000000000
   14      H       3.0297803118    -2.2000767581     0.0000000000
   15      H       0.5735153554    -2.1533597986     0.0000000000
   16      H      -3.2586693435    -0.7198483703     1.5573418761
   17      H      -1.9068109367    -1.8528318933     1.5645079750
   18      H      -1.7783122584    -0.3262170440     2.4469143755
   19      H      -3.2586693435    -0.7198483703    -1.5573418761
   20      H      -1.7783122584    -0.3262170440    -2.4469143755
   21      H      -1.9068109367    -1.8528318933    -1.5645079750
   22      H      -2.7472947105     1.9571122996     0.0000000000
 ----------------------------------------------------------------
 Molecular Point Group                 Cs    NOp =  2
 Largest Abelian Subgroup              Cs    NOp =  2
 Nuclear Repulsion Energy =   591.7719248027 hartrees
 There are       41 alpha and       41 beta electrons
 Applying Cartesian multipole field
    Component          Value
    ---------          -----
     (2,0,0)        1.00000E-11
     (0,2,0)        2.00000E-11
     (0,0,2)       -3.00000E-11
 Nucleus-field energy     =     0.0000000140 hartrees
 Requested basis set is 6-311+G(d,p)
 There are 115 shells and 300 basis functions
 A cutoff of  1.0D-11 yielded   5515 shell pairs
 There are     39061 function pairs (     41667 Cartesian)
 Smallest overlap matrix eigenvalue = 2.48E-06

 Q-Chem warning in module stvman/mkSTV.C, line 295:

 Overlap eigenvalue is smaller than square root of threshold

 Guess MOs from SCF MO coefficient file
 Reading MOs from coefficient file
 Reading MOs from coefficient file

 -----------------------------------------------------------------------
  General SCF calculation program by
  Eric Jon Sundstrom, Paul Horn, Yuezhi Mao, Dmitri Zuev, Alec White,
  David Stuck, Shaama M.S., Shane Yost, Joonho Lee, David Small,
  Daniel Levine, Susi Lehtola, Hugh Burton, Evgeny Epifanovsky
 -----------------------------------------------------------------------
 Exchange:     0.2000 Hartree-Fock + 0.0800 Slater + 0.7200 B88
 Correlation:  0.1900 VWN1RPA + 0.8100 LYP
 Using SG-1 standard quadrature grid
 using 4 threads for integral computing
 -------------------------------------------------------
 OpenMP Integral computing Module                
 Release: version 1.0, May 2013, Q-Chem Inc. Pittsburgh 
 -------------------------------------------------------
 -------------------------------------------------------
 OpenMP BLAS3 based DFT computing Module                
 Release: version 1.0, May 2013, Q-Chem Inc. Pittsburgh 
 -------------------------------------------------------
 A restricted SCF calculation will be
 performed using DIIS
 SCF converges when DIIS error is below 1.0e-08
 ---------------------------------------
[...]
 TransDip   0.000  0.000  0.208    0.083  0.099  0.000   -0.049 -0.102  0.000

 Mode:                40                     41                     42
 Frequency:      1355.22                1454.99                1456.50
 Force Cnst:      1.6564                 1.3143                 1.3141
 Red. Mass:       1.5308                 1.0538                 1.0514
 IR Active:          YES                    YES                    YES
 IR Intens:        2.489                  0.680                  0.948
 Raman Active:       YES                    YES                    YES
               X      Y      Z        X      Y      Z        X      Y      Z
 C         -0.000 -0.040 -0.000    0.000  0.000 -0.001   -0.000 -0.000 -0.002
 C         -0.115 -0.032  0.000    0.000 -0.000  0.000   -0.000  0.000  0.000
 C          0.045 -0.012 -0.000   -0.000  0.000  0.000    0.000 -0.000  0.000
 C          0.003  0.117  0.000    0.000  0.000 -0.000   -0.000 -0.000 -0.000
 C         -0.046 -0.010 -0.000    0.000  0.000  0.000   -0.000 -0.000  0.000
 C          0.110 -0.039  0.000   -0.000 -0.000 -0.000    0.000  0.000  0.001
 Si         0.001 -0.001  0.000   -0.000 -0.000  0.002    0.000  0.000  0.004
 C         -0.001 -0.000  0.004   -0.018  0.040  0.013    0.038  0.009  0.020
 C         -0.001 -0.000 -0.004    0.018 -0.040  0.013   -0.038 -0.009  0.020
 O         -0.001  0.001  0.000    0.000  0.000 -0.001   -0.000  0.000 -0.001
 H          0.540  0.324 -0.000   -0.000 -0.000  0.000    0.000  0.000  0.000
 H          0.196 -0.101 -0.000    0.000 -0.000 -0.000   -0.000  0.000 -0.000
 H         -0.007 -0.298 -0.000   -0.000 -0.000 -0.000    0.000  0.000 -0.001
 H         -0.187 -0.084 -0.000   -0.000 -0.000  0.001    0.000  0.000 -0.000
 H         -0.514  0.332 -0.000   -0.000 -0.000 -0.003   -0.000  0.000 -0.008
 H         -0.001 -0.006 -0.021   -0.041 -0.330 -0.330    0.004 -0.330  0.075
 H          0.000 -0.000 -0.018   -0.142  0.001  0.210   -0.433 -0.113 -0.254
 H          0.017  0.011 -0.011    0.414 -0.197 -0.058   -0.083  0.319 -0.098
 H         -0.001 -0.006  0.021    0.041  0.330 -0.330   -0.004  0.330  0.075
 H          0.017  0.011  0.011   -0.414  0.197 -0.058    0.083 -0.319 -0.098
 H          0.000 -0.000  0.018    0.142 -0.001  0.210    0.433  0.113 -0.254
 H          0.003  0.015  0.000   -0.000 -0.000 -0.006    0.000  0.000 -0.004
 TransDip   0.031  0.040 -0.000   -0.000 -0.000 -0.026    0.000  0.000 -0.031

 Mode:                43                     44                     45
 Frequency:      1458.58                1464.25                1468.94
 Force Cnst:      2.4995                 1.3264                 1.3433
 Red. Mass:       1.9941                 1.0500                 1.0566
 IR Active:          YES                    YES                    YES
 IR Intens:       14.679                  4.797                  5.480
 Raman Active:       YES                    YES                    YES
               X      Y      Z        X      Y      Z        X      Y      Z
 C         -0.002 -0.129 -0.000    0.004  0.006  0.000   -0.002 -0.012 -0.000
 C         -0.070  0.065  0.000   -0.000 -0.005  0.000   -0.003  0.008  0.000
 C          0.150 -0.023 -0.000   -0.006  0.001 -0.000    0.013 -0.003 -0.000
 C         -0.001 -0.091  0.000    0.002  0.009 -0.000   -0.002 -0.012  0.000
 C         -0.152 -0.018  0.000    0.003 -0.003 -0.000   -0.012  0.003  0.000
 C          0.070  0.063 -0.000   -0.004 -0.001 -0.000    0.010  0.003  0.000
 Si         0.001  0.003 -0.000   -0.005 -0.005  0.000   -0.006  0.006 -0.000
 C          0.005 -0.008 -0.002   -0.022 -0.026 -0.024   -0.032  0.026  0.001
 C          0.005 -0.008  0.002   -0.022 -0.026  0.024   -0.032  0.026 -0.001
 O         -0.003  0.000  0.000    0.002  0.000 -0.000    0.002  0.000  0.000
 H          0.057  0.149 -0.000    0.012  0.000 -0.000   -0.008  0.008 -0.000
 H         -0.364  0.304 -0.000    0.025 -0.018  0.000   -0.041  0.032  0.000
 H          0.016  0.609  0.000    0.002 -0.033 -0.000   -0.001  0.059 -0.000
 H          0.385  0.288 -0.000   -0.008 -0.010  0.000    0.021  0.022 -0.000
 H         -0.036  0.142  0.000   -0.004 -0.002 -0.000   -0.009  0.015  0.000
 H          0.009  0.059  0.058    0.019  0.449  0.108   -0.036 -0.099 -0.329
 H          0.018 -0.004 -0.044    0.439  0.097  0.112    0.100  0.056  0.314
 H         -0.079  0.045  0.008   -0.148 -0.179  0.121    0.393 -0.329  0.001
 H          0.009  0.059 -0.058    0.019  0.449 -0.108   -0.036 -0.099  0.329
 H         -0.079  0.046 -0.008   -0.148 -0.179 -0.121    0.393 -0.329 -0.001
 H          0.018 -0.004  0.044    0.439  0.097 -0.112    0.100  0.056 -0.314
 H          0.002  0.013  0.000   -0.002 -0.011 -0.000   -0.003 -0.012  0.000
 TransDip   0.006  0.123  0.000    0.032  0.063 -0.000    0.049 -0.056  0.000

 Mode:                46                     47                     48
 Frequency:      1517.51                1608.10                1631.26
 Force Cnst:      2.7459                 7.4257                 8.2692
 Red. Mass:       2.0238                 4.8737                 5.2743
 IR Active:          YES                    YES                    YES
 IR Intens:        1.352                  0.025                  1.523
 Raman Active:       YES                    YES                    YES
               X      Y      Z        X      Y      Z        X      Y      Z
 C          0.117  0.000  0.000   -0.011 -0.222 -0.000   -0.175  0.014  0.000
 C         -0.083 -0.095 -0.000    0.125  0.160 -0.000    0.274  0.056 -0.000
 C         -0.092  0.106  0.000    0.032 -0.199 -0.000   -0.279  0.095  0.000
 C          0.093 -0.006 -0.000    0.017  0.370 -0.000    0.149 -0.022 -0.000
 C         -0.093 -0.098 -0.000   -0.072 -0.207  0.000   -0.279 -0.061  0.000
 C         -0.080  0.097  0.000   -0.093  0.162 -0.000    0.284 -0.085 -0.000
 Si        -0.007 -0.000  0.000    0.000  0.005 -0.000    0.008 -0.000  0.000
 C         -0.001  0.003 -0.000    0.001 -0.001  0.000    0.000 -0.000  0.000
 C         -0.001  0.003  0.000    0.001 -0.001 -0.000    0.000 -0.000 -0.000
 O         -0.000  0.001 -0.000   -0.003 -0.000  0.000   -0.001  0.001 -0.000
 H          0.449  0.179  0.000   -0.335 -0.083  0.000   -0.275 -0.253 -0.000
 H          0.415 -0.188  0.000   -0.193 -0.088  0.000    0.281 -0.252 -0.000
 H          0.114  0.002  0.000   -0.004 -0.558  0.000    0.167  0.023  0.000
 H          0.415  0.165  0.000    0.230 -0.068 -0.000    0.271  0.247  0.000
 H          0.456 -0.207 -0.000    0.326 -0.084  0.000   -0.305  0.272  0.000
 H         -0.003 -0.023 -0.013    0.000 -0.009 -0.015    0.001  0.003  0.008
 H         -0.014 -0.001  0.012   -0.012 -0.003  0.013    0.002 -0.000 -0.005
 H          0.021 -0.009 -0.004    0.012 -0.003 -0.003   -0.007  0.003  0.001
 H         -0.003 -0.023  0.013    0.000 -0.009  0.015    0.001  0.003 -0.008
 H          0.021 -0.009  0.004    0.012 -0.003  0.003   -0.007  0.003 -0.001
 H         -0.014 -0.001 -0.012   -0.012 -0.003 -0.013    0.002 -0.000  0.005
 H          0.000  0.004  0.000   -0.001  0.004  0.000   -0.001 -0.001 -0.000
 TransDip   0.033 -0.018 -0.000    0.001  0.005 -0.000    0.039 -0.004  0.000

 Mode:                49                     50                     51
 Frequency:      3019.02                3021.15                3083.16
 Force Cnst:      5.5629                 5.5697                 6.1551
 Red. Mass:       1.0359                 1.0357                 1.0990
 IR Active:          YES                    YES                    YES
 IR Intens:        4.619                 12.365                  0.068
 Raman Active:       YES                    YES                    YES
               X      Y      Z        X      Y      Z        X      Y      Z
 C         -0.000 -0.000 -0.000   -0.000 -0.000  0.000    0.000 -0.000 -0.000
 C          0.000  0.000 -0.000    0.000 -0.000 -0.000    0.000 -0.000  0.000
 C          0.000  0.000  0.000   -0.000 -0.000  0.000   -0.000  0.000 -0.000
 C          0.000  0.000 -0.000   -0.000 -0.000 -0.000   -0.000 -0.000  0.000
 C          0.000  0.000  0.000   -0.000  0.000 -0.000   -0.000 -0.000  0.000
 C         -0.000  0.000  0.000    0.000  0.001 -0.000    0.000 -0.000  0.000
 Si         0.000 -0.000  0.001    0.000  0.001 -0.000   -0.000  0.000 -0.000
 C          0.020  0.016 -0.025   -0.020 -0.016  0.025   -0.052  0.037 -0.008
 C         -0.020 -0.016 -0.025   -0.020 -0.016 -0.025    0.052 -0.037 -0.008
 O         -0.000 -0.000 -0.000    0.000 -0.000  0.000    0.000  0.000 -0.000
 H          0.000 -0.000 -0.000   -0.001  0.002  0.000   -0.000  0.000 -0.000
 H          0.000  0.000  0.000    0.000  0.001  0.000   -0.000 -0.000 -0.000
 H         -0.000  0.000  0.000    0.000  0.000  0.000    0.000 -0.000 -0.000
 H          0.000  0.000 -0.000   -0.000  0.000 -0.000   -0.000  0.000 -0.000
 H         -0.000 -0.000  0.000   -0.004 -0.008 -0.000    0.000  0.000 -0.000
 H         -0.468  0.038 -0.000    0.467 -0.037  0.000    0.492 -0.025 -0.010
 H          0.102 -0.385  0.001   -0.101  0.379 -0.001    0.107 -0.478  0.010
 H          0.131  0.154  0.280   -0.133 -0.157 -0.288    0.029  0.059  0.095
 H          0.468 -0.038 -0.000    0.467 -0.037 -0.000   -0.492  0.025 -0.010
 H         -0.131 -0.154  0.280   -0.133 -0.157  0.288   -0.029 -0.059  0.095
 H         -0.102  0.385  0.001   -0.101  0.379  0.001   -0.107  0.478  0.010
 H          0.000 -0.000 -0.000    0.001 -0.001  0.000   -0.000  0.000  0.001
 TransDip  -0.000  0.000 -0.069   -0.103 -0.046  0.000   -0.000  0.000 -0.008

 Mode:                52                     53                     54
 Frequency:      3086.57                3101.72                3102.15
 Force Cnst:      6.1655                 6.2357                 6.2382
 Red. Mass:       1.0984                 1.1001                 1.1002
 IR Active:          YES                    YES                    YES
 IR Intens:       34.821                  7.826                 12.363
 Raman Active:       YES                    YES                    YES
               X      Y      Z        X      Y      Z        X      Y      Z
 C          0.000  0.000  0.000    0.000 -0.000  0.000    0.000  0.000  0.000
 C          0.000 -0.000  0.000   -0.000 -0.000  0.000   -0.000  0.000  0.000
 C         -0.000 -0.000 -0.000    0.000 -0.000 -0.000    0.000  0.000 -0.000
 C         -0.000 -0.000 -0.000    0.000  0.000 -0.000   -0.000 -0.000 -0.000
 C         -0.000  0.000  0.000    0.000  0.000 -0.000    0.000 -0.000  0.000
 C         -0.001 -0.002 -0.000   -0.000 -0.000  0.000    0.001  0.002 -0.000
 Si        -0.001  0.001 -0.000    0.000  0.000 -0.001   -0.000 -0.001 -0.000
 C         -0.053  0.035 -0.010   -0.025 -0.045 -0.040   -0.023 -0.046 -0.039
 C         -0.053  0.035  0.010    0.025  0.045 -0.040   -0.023 -0.046  0.039
 O          0.000 -0.000 -0.000    0.000  0.000  0.000    0.000  0.000 -0.000
 H         -0.001  0.001 -0.000   -0.000  0.000 -0.000    0.001 -0.001  0.000
 H          0.000  0.000  0.000   -0.000 -0.000 -0.000    0.000  0.000 -0.000
 H          0.001 -0.000  0.000   -0.000 -0.000  0.000    0.000  0.000  0.000
 H          0.002 -0.003  0.000    0.000 -0.000 -0.000   -0.002  0.004  0.000
 H          0.013  0.022  0.000    0.000  0.000  0.000   -0.014 -0.024  0.000
 H          0.498 -0.025 -0.012    0.171 -0.021 -0.011    0.157 -0.021 -0.011
 H          0.103 -0.465  0.011   -0.082  0.304 -0.017   -0.088  0.328 -0.018
 H          0.039  0.069  0.117    0.215  0.254  0.506    0.212  0.249  0.498
 H          0.498 -0.025  0.012   -0.171  0.021 -0.011    0.157 -0.021  0.011
 H          0.039  0.069 -0.117   -0.215 -0.254  0.506    0.212  0.249 -0.498
 H          0.103 -0.465 -0.011    0.082 -0.304 -0.017   -0.088  0.328  0.018
 H         -0.001 -0.002 -0.000   -0.000  0.000 -0.001    0.000 -0.000  0.000
 TransDip  -0.171  0.080 -0.000    0.000 -0.000 -0.090   -0.057 -0.097 -0.000

 Mode:                55                     56                     57
 Frequency:      3141.73                3159.78                3170.35
 Force Cnst:      6.3229                 6.3883                 6.4575
 Red. Mass:       1.0872                 1.0860                 1.0904
 IR Active:          YES                    YES                    YES
 IR Intens:       11.113                  0.171                 17.265
 Raman Active:       YES                    YES                    YES
               X      Y      Z        X      Y      Z        X      Y      Z
 C         -0.002  0.002  0.000    0.000  0.001  0.000   -0.001  0.001 -0.000
 C          0.000  0.001 -0.000    0.010 -0.020 -0.000   -0.014  0.028 -0.000
 C         -0.002 -0.004 -0.000    0.029  0.048  0.000   -0.022 -0.039  0.000
 C          0.008 -0.000  0.000   -0.050  0.001  0.000   -0.030  0.004  0.000
 C         -0.010  0.023  0.000    0.013 -0.021 -0.000    0.028 -0.049  0.000
 C         -0.041 -0.069 -0.000   -0.010 -0.015  0.000   -0.011 -0.016  0.000
 Si        -0.000 -0.000  0.000   -0.000 -0.000 -0.000   -0.000  0.000 -0.000
 C          0.001 -0.002 -0.001    0.000 -0.000 -0.000    0.000 -0.000 -0.000
 C          0.001 -0.002  0.001    0.000 -0.000  0.000    0.000 -0.000  0.000
 O          0.000  0.000 -0.000    0.000 -0.000  0.000   -0.000 -0.000  0.000
 H          0.005 -0.012 -0.000   -0.130  0.244  0.000    0.174 -0.329 -0.000
 H          0.029  0.048  0.000   -0.342 -0.564  0.000    0.265  0.441  0.000
 H         -0.096  0.002  0.000    0.598 -0.014  0.000    0.353 -0.013 -0.000
 H          0.147 -0.279  0.000   -0.140  0.254  0.000   -0.310  0.568 -0.000
 H          0.474  0.809  0.000    0.102  0.172 -0.000    0.110  0.185 -0.000
 H         -0.004  0.000 -0.000   -0.001  0.000 -0.000    0.000  0.000 -0.000
 H         -0.005  0.024 -0.001   -0.001  0.004 -0.000   -0.001  0.003 -0.000
 H          0.003  0.004  0.008    0.000  0.001  0.001    0.000  0.000  0.000
 H         -0.004  0.000  0.000   -0.001  0.000  0.000    0.000  0.000  0.000
 H          0.003  0.004 -0.008    0.000  0.001 -0.001    0.000  0.000 -0.000
 H         -0.005  0.024  0.001   -0.001  0.004  0.000   -0.001  0.003  0.000
 H         -0.000 -0.000 -0.000    0.000  0.000 -0.000   -0.000 -0.000  0.000
 TransDip  -0.069 -0.081  0.000   -0.013  0.003  0.000   -0.044 -0.126 -0.000

 Mode:                58                     59                     60
 Frequency:      3181.01                3187.95                3915.19
 Force Cnst:      6.5180                 6.5704                 9.6365
 Red. Mass:       1.0933                 1.0973                 1.0670
 IR Active:          YES                    YES                    YES
 IR Intens:       19.076                 19.306                 76.945
 Raman Active:       YES                    YES                    YES
               X      Y      Z        X      Y      Z        X      Y      Z
 C          0.001  0.002  0.000    0.001  0.001  0.000    0.000  0.000 -0.000
 C          0.028 -0.052 -0.000    0.026 -0.044 -0.000    0.000 -0.000  0.000
 C         -0.008 -0.006  0.000   -0.025 -0.041  0.000   -0.000 -0.000 -0.000
 C          0.043  0.001 -0.000   -0.047  0.002 -0.000    0.000 -0.000  0.000
 C          0.021 -0.042 -0.000   -0.014  0.028  0.000    0.000  0.000 -0.000
 C         -0.008 -0.009 -0.000    0.005  0.007 -0.000   -0.000 -0.000 -0.000
 Si        -0.000 -0.000 -0.000    0.000 -0.000 -0.000   -0.001 -0.001 -0.000
 C          0.000 -0.000 -0.000   -0.000  0.000 -0.000    0.000 -0.000 -0.000
 C          0.000 -0.000  0.000   -0.000  0.000  0.000    0.000 -0.000  0.000
 O          0.000  0.000 -0.000    0.000  0.000 -0.000   -0.059  0.021 -0.000
 H         -0.320  0.595  0.000   -0.271  0.500  0.000    0.000  0.000 -0.000
 H          0.061  0.092  0.000    0.272  0.450  0.000    0.000  0.000 -0.000
 H         -0.485  0.009  0.000    0.515 -0.013  0.000    0.000 -0.000 -0.000
 H         -0.247  0.459  0.000    0.163 -0.305  0.000    0.000 -0.000 -0.000
 H          0.067  0.108  0.000   -0.045 -0.073  0.000    0.000  0.000 -0.000
 H         -0.001 -0.000  0.000   -0.001 -0.000  0.000   -0.000  0.000 -0.000
 H         -0.000  0.002 -0.000    0.000 -0.001 -0.000   -0.000 -0.001  0.001
 H          0.000  0.000  0.001    0.000  0.000  0.000    0.000  0.000 -0.000
 H         -0.001 -0.000 -0.000   -0.001 -0.000 -0.000   -0.000  0.000  0.000
 H          0.000  0.000 -0.001    0.000  0.000 -0.000    0.000  0.000  0.000
 H         -0.000  0.002  0.000    0.000 -0.001  0.000   -0.000 -0.001 -0.001
 H          0.000  0.000 -0.000   -0.000  0.000 -0.000    0.948 -0.313 -0.000
 TransDip   0.072 -0.120  0.000   -0.135 -0.040  0.000    0.218 -0.178 -0.000

 STANDARD THERMODYNAMIC QUANTITIES AT   298.15 K  AND     1.00 ATM

   This Molecule has  0 Imaginary Frequencies
   Zero point vibrational energy:      111.740 kcal/mol

   Atom    1 Element C  Has Mass   12.00000
   Atom    2 Element C  Has Mass   12.00000
   Atom    3 Element C  Has Mass   12.00000
   Atom    4 Element C  Has Mass   12.00000
   Atom    5 Element C  Has Mass   12.00000
   Atom    6 Element C  Has Mass   12.00000
   Atom    7 Element Si Has Mass   27.97693
   Atom    8 Element C  Has Mass   12.00000
   Atom    9 Element C  Has Mass   12.00000
   Atom   10 Element O  Has Mass   15.99491
   Atom   11 Element H  Has Mass    1.00783
   Atom   12 Element H  Has Mass    1.00783
   Atom   13 Element H  Has Mass    1.00783
   Atom   14 Element H  Has Mass    1.00783
   Atom   15 Element H  Has Mass    1.00783
   Atom   16 Element H  Has Mass    1.00783
   Atom   17 Element H  Has Mass    1.00783
   Atom   18 Element H  Has Mass    1.00783
   Atom   19 Element H  Has Mass    1.00783
   Atom   20 Element H  Has Mass    1.00783
   Atom   21 Element H  Has Mass    1.00783
   Atom   22 Element H  Has Mass    1.00783
   Molecular Mass:   152.065800 amu
   Principal axes and moments of inertia in amu*Bohr^2:
                             1           2           3
    Eigenvalues --      852.98117  2496.12438  2788.33008
          X               0.99988     0.01552    -0.00000
          Y              -0.01552     0.99988    -0.00000
          Z              -0.00000     0.00000     1.00000
   Rotational Symmetry Number is   1
   The Molecule is an Asymmetric Top
   Translational Enthalpy:        0.889 kcal/mol
   Rotational Enthalpy:           0.889 kcal/mol
   Vibrational Enthalpy:        117.481 kcal/mol
   gas constant (RT):             0.592 kcal/mol
   Translational Entropy:        40.967  cal/mol.K
   Rotational Entropy:           30.163  cal/mol.K
   Vibrational Entropy:          37.837  cal/mol.K

   Total Enthalpy:              119.851 kcal/mol
   Total Entropy:               108.968  cal/mol.K
Archival summary:
1\1\mm2.localdomain\FREQ\ProcedureUnspecified\6-311+G**\i11812\xuedong\TueNov518:30:592019TueNov518:30:592019\0\\#,FREQ,ProcedureUnspecified,6-311+G**,\\0,1\Si\O,1,1.67944\H,2,0.958702,1,119.696\C,1,1.87983,2,103.755,3,180,0\C,4,1.40396,1,121.173,2,-0,0\H,5,1.08442,4,119.288,1,-0,0\C,5,1.39452,4,120.991,1,180,0\H,7,1.08484,5,119.849,4,-180,0\C,7,1.39372,5,120.174,4,0,0\H,9,1.08462,7,120.181,5,180,0\C,9,1.39445,7,119.727,5,-0,0\H,11,1.08472,9,120.096,7,180,0\C,11,1.39347,9,119.897,7,0,0\H,13,1.08664,11,118.64,9,180,0\C,1,1.88296,2,110.39,3,60.4853,0\H,15,1.09331,1,111.09,2,58.1057,0\H,15,1.09468,1,111.189,2,178.187,0\H,15,1.09536,1,111.213,2,-62.3011,0\C,1,1.88296,2,110.39,3,-60.4853,0\H,19,1.09331,1,111.09,2,-58.1057,0\H,19,1.09468,1,111.189,2,-178.187,0\H,19,1.09536,1,111.213,2,62.3011,0\\\@

 Total job time:  467.84s(wall), 1836.40s(cpu) 
 Tue Nov  5 18:30:59 2019

        *************************************************************
        *                                                           *
        *  Thank you very much for using Q-Chem.  Have a nice day.  *
        *                                                           *
        *************************************************************


