
Running Job 1 of 2 17.freq.M06.qcinp
qchem 17.freq.M06.qcinp_37740.0 /scratch/xuedong/qchem37740/ 1
/home/qwang/software/qchem5.1/exe/qcprog.exe_s 17.freq.M06.qcinp_37740.0 /scratch/xuedong/qchem37740/
Check license passed

                  Welcome to Q-Chem
     A Quantum Leap Into The Future Of Chemistry


 Q-Chem 5.1, Q-Chem, Inc., Pleasanton, CA (2018)

 Yihan Shao,  Zhengting Gan,  E. Epifanovsky,  A. T. B. Gilbert,  M. Wormit,  
 J. Kussmann,  A. W. Lange,  A. Behn,  Jia Deng,  Xintian Feng,  D. Ghosh,  
 M. Goldey,  P. R. Horn,  L. D. Jacobson,  I. Kaliman,  T. Kus,  A. Landau,  
 Jie Liu,  E. I. Proynov,  R. M. Richard,  R. P. Steele,  E. J. Sundstrom,  
 H. L. Woodcock III,  P. M. Zimmerman,  D. Zuev,  B. Albrecht,  E. Alguire,  
 S. A. Baeppler,  D. Barton,  Z. Benda,  Y. A. Bernard,  E. J. Berquist,  
 K. B. Bravaya,  H. Burton,  D. Casanova,  Chun-Min Chang,  Yunqing Chen,  
 A. Chien,  K. D. Closser,  M. P. Coons,  S. Coriani,  S. Dasgupta,  
 A. L. Dempwolff,  M. Diedenhofen,  Hainam Do,  R. G. Edgar,  Po-Tung Fang,  
 S. Faraji,  S. Fatehi,  Qingguo Feng,  K. D. Fenk,  J. Fosso-Tande,  
 Qinghui Ge,  A. Ghysels,  G. Gidofalvi,  J. Gomes,  J. Gonthier,  A. Gunina,  
 D. Hait,  M. W. D. Hanson-Heine,  P. H. P. Harbach,  A. W. Hauser,  
 J. E. Herr,  E. G. Hohenstein,  Z. C. Holden,  Kerwin Hui,  B. C. Huynh,  
 T.-C. Jagau,  Hyunjun Ji,  B. Kaduk,  K. Khistyaev,  Jaehoon Kim,  
 P. Klunzinger,  K. Koh,  D. Kosenkov,  L. Koulias,  T. Kowalczyk,  
 C. M. Krauter,  A. Kunitsa,  Ka Un Lao,  A. Laurent,  K. V. Lawler,  
 Joonho Lee,  D. Lefrancois,  S. Lehtola,  D. S. Levine,  Yi-Pei Li,  
 You-Sheng Lin,  Fenglai Liu,  E. Livshits,  A. Luenser,  P. Manohar,  
 E. Mansoor,  S. F. Manzer,  Shan-Ping Mao,  Yuezhi Mao,  N. Mardirossian,  
 A. V. Marenich,  T. Markovich,  L. A. Martinez-Martinez,  S. A. Maurer,  
 N. J. Mayhall,  S. C. McKenzie,  J.-M. Mewes,  A. F. Morrison,  
 J. W. Mullinax,  K. Nanda,  T. S. Nguyen-Beck,  R. Olivares-Amaya,  
 J. A. Parkhill,  T. M. Perrine,  F. Plasser,  P. Pokhilko,  S. Prager,  
 A. Prociuk,  E. Ramos,  D. R. Rehn,  F. Rob,  M. Schneider,  N. Sergueev,  
 S. M. Sharada,  S. Sharma,  D. W. Small,  T. Stauch,  T. Stein,  
 Yu-Chuan Su,  A. J. W. Thom,  A. Tkatchenko,  T. Tsuchimochi,  N. M. Tubman,  
 L. Vogt,  M. L. Vidal,  O. Vydrov,  M. A. Watson,  J. Wenzel,  
 M. de Wergifosse,  T. A. Wesolowski,  A. White,  J. Witte,  A. Yamada,  
 Jun Yang,  K. Yao,  S. Yeganeh,  S. R. Yost,  Zhi-Qiang You,  A. Zech,  
 Igor Ying Zhang,  Xing Zhang,  Yan Zhao,  Ying Zhu,  B. R. Brooks,  
 G. K. L. Chan,  C. J. Cramer,  M. S. Gordon,  W. J. Hehre,  A. Klamt,  
 M. W. Schmidt,  C. D. Sherrill,  D. G. Truhlar,  A. Aspuru-Guzik,  R. Baer,  
 A. T. Bell,  N. A. Besley,  Jeng-Da Chai,  R. A. DiStasio Jr.,  A. Dreuw,  
 B. D. Dunietz,  T. R. Furlani,  Chao-Ping Hsu,  Yousung Jung,  Jing Kong,  
 D. S. Lambrecht,  WanZhen Liang,  C. Ochsenfeld,  V. A. Rassolov,  
 L. V. Slipchenko,  J. E. Subotnik,  T. Van Voorhis,  J. M. Herbert,  
 A. I. Krylov,  P. M. W. Gill,  M. Head-Gordon

 Contributors to earlier versions of Q-Chem not listed above: 
 R. D. Adamson,  B. Austin,  J. Baker,  G. J. O. Beran,  K. Brandhorst,  
 S. T. Brown,  E. F. C. Byrd,  A. K. Chakraborty,  C.-L. Cheng,  
 Siu Hung Chien,  D. M. Chipman,  D. L. Crittenden,  H. Dachsel,  
 R. J. Doerksen,  A. D. Dutoi,  L. Fusti-Molnar,  W. A. Goddard III,  
 A. Golubeva-Zadorozhnaya,  S. R. Gwaltney,  G. Hawkins,  A. Heyden,  
 S. Hirata,  G. Kedziora,  F. J. Keil,  C. Kelley,  Jihan Kim,  R. A. King,  
 R. Z. Khaliullin,  P. P. Korambath,  W. Kurlancheek,  A. M. Lee,  M. S. Lee,  
 S. V. Levchenko,  Ching Yeh Lin,  D. Liotard,  R. C. Lochan,  I. Lotan,  
 P. E. Maslen,  N. Nair,  D. P. O'Neill,  D. Neuhauser,  E. Neuscamman,  
 C. M. Oana,  R. Olson,  B. Peters,  R. Peverati,  P. A. Pieniazek,  
 Y. M. Rhee,  J. Ritchie,  M. A. Rohrdanz,  E. Rosta,  N. J. Russ,  
 H. F. Schaefer III,  N. E. Schultz,  N. Shenvi,  A. C. Simmonett,  A. Sodt,  
 D. Stuck,  K. S. Thanthiriwatte,  V. Vanovschi,  Tao Wang,  A. Warshel,  
 C. F. Williams,  Q. Wu,  X. Xu,  W. Zhang

 Please cite Q-Chem as follows:
 Y. Shao et al., Mol. Phys. 113, 184-215 (2015)
 DOI: 10.1080/00268976.2014.952696

 Q-Chem 5.1.0 for Intel X86 EM64T Linux

 Parts of Q-Chem use Armadillo 8.300.2 (Tropical Shenanigans).
 http://arma.sourceforge.net/

 Q-Chem begins on Fri Jun 19 20:37:29 2020  

Host: 
0

     Scratch files written to /scratch/xuedong/qchem37740//
 May118 |scratch|qcdevops|jenkins|workspace|build_RNUM 6581   
Processing $rem in /home/qwang/software/qchem5.1/config/preferences.
 MEM_TOTAL  2000 

Checking the input file for inconsistencies... 	...done.

--------------------------------------------------------------
User input:
--------------------------------------------------------------
$molecule
0 1
C        -2.0755686880    0.8848949250    1.5421181707
Si       -1.4467882020   -0.0210174785    0.0000136164
C        -2.0188183693   -1.8164828176   -0.0000963271
C        -2.0754828044    0.8850648028   -1.5420246959
C         0.4616801416    0.0181217091    0.0000563264
C         1.1940027737    1.2182279155    0.0002494376
N         1.0881698034   -1.1824638003   -0.0001250838
C         2.4259224894   -1.2036993395   -0.0001235279
C         3.2220324107   -0.0574447019    0.0000575352
C         2.5869810705    1.1833566227    0.0002494431
H        -1.7421472398    1.9295860166    1.5611784896
H        -3.1722338513    0.8907547688    1.5736582147
H        -1.7192224428    0.4054330981    2.4613690333
H        -1.6423973183   -2.3467980787   -0.8812747872
H        -3.1135476058   -1.8862378248   -0.0001939992
H        -1.6425535022   -2.3468595289    0.8811127232
H        -1.7193397869    0.4055144030   -2.4613084647
H        -1.7417789970    1.9296658195   -1.5611057345
H        -3.1721486517    0.8912173227   -1.5734732794
H         0.6741862474    2.1737297904    0.0004042809
H         2.8862457118   -2.1913752270   -0.0002728969
H         4.3052590089   -0.1398494668    0.0000486382
H         3.1660042289    2.1037163436    0.0003972246
$end

$rem
JOBTYPE  =  opt
METHOD  =  M06
BASIS  =  6-311G+(d,p)
SCF_MAX_CYCLES  =  200
GEOM_OPT_MAX_CYCLES  =  300
GEOM_OPT_TOL_DISPLACEMENT = 10
GEOM_OPT_TOL_ENERGY = 1
GEOM_OPT_TOL_GRADIENT = 1
$end
--------------------------------------------------------------
 ----------------------------------------------------------------
             Standard Nuclear Orientation (Angstroms)
    I     Atom           X                Y                Z
 ----------------------------------------------------------------
    1      C      -2.0850696793     0.8939042683     1.5419735370
    2      Si     -1.4596939566    -0.0145836979    -0.0000003472
    3      C      -2.0384225833    -1.8079011422     0.0001695817
    4      C      -2.0850204123     0.8936045215    -1.5421693205
    5      C       0.4489071959     0.0174309374     0.0000144392
    6      C       1.1857047052     1.2147950472     0.0000164529
    7      N       1.0709107235    -1.1854848977     0.0000085598
    8      C       2.4085748166    -1.2117141005    -0.0000020493
    9      C       3.2089581435    -0.0684393025    -0.0000046212
   10      C       2.5785431222     1.1747240293     0.0000057332
   11      H      -1.7477505087     1.9373463115     1.5608710052
   12      H      -3.1817049457     0.9038627062     1.5735253111
   13      H      -1.7305046378     0.4132554311     2.4612932664
   14      H      -1.6639944564    -2.3397519624    -0.8809324812
   15      H      -3.1334045876    -1.8735690685     0.0000951272
   16      H      -1.6641295826    -2.3395446530     0.8814550198
   17      H      -1.7306811334     0.4125881076    -2.4613841852
   18      H      -1.7474196814     1.9369496325    -1.5614131989
   19      H      -3.1816560309     0.9038460513    -1.5736062177
   20      H       0.6694586762     2.1722307449     0.0000318419
   21      H       2.8652078513    -2.2011014977    -0.0000063820
   22      H       4.2918695783    -0.1548871634    -0.0000134431
   23      H       3.1609979363     2.0929158640     0.0000067619
 ----------------------------------------------------------------
 Molecular Point Group                 C1    NOp =  1
 Largest Abelian Subgroup              C1    NOp =  1
 Nuclear Repulsion Energy =   588.7363746005 hartrees
 There are       41 alpha and       41 beta electrons
 Requested basis set is 6-311+G(d,p)
 There are 119 shells and 306 basis functions

 Total QAlloc Memory Limit   2000 MB
 Mega-Array Size       188 MB
 MEM_STATIC part       192 MB
 A cutoff of  1.0D-11 yielded   5890 shell pairs
 There are     40571 function pairs (     43234 Cartesian)
 
 -------------------------------------------------------
 OpenMP Integral Computing Module                       
 Release: version 1.0, May 2013, Q-Chem Inc. Pittsburgh 
 -------------------------------------------------------
 Integral Job Info:
 Integral job number is                      11
 Integral operator is                         1
 short-range coefficients                     0
 long-range coefficients              100000000
 Omega coefficients                           0
 if combine SR and LR in K                    0
 Integral screening is                        0
 Integral computing path is                   2
 max size of driver memory is            800000
 size of driver memory is                593474
 size of scratch memory is              4204008
 max col of scratch BK array               1296
 max len of scratch array in speh3          155
 max len of scratch index in speh4           18
 max int batch size is                      520
 min int batch size is                       52
 fixed nKL is                                52
 max L of basis functions is                  2
 order of int derivative is                   0
 number of shells is                        119
 number of basis is                         316
 number of cartesian basis is               316
 number of contracted shell pairs          5890
 number of primitive shell pairs          13573
 maxK2 (contraction) of shell pair           36
 max number of K2 of shell pair               1
 max number of CS2 of shell pair            876
 max number of PS2 of shell pair           1629
 mem total for path MDJ                  561724
 -------------------------------------------------------
 Smallest overlap matrix eigenvalue = 4.35E-06

 Scale SEOQF with 1.000000e-01/1.000000e-01/1.000000e-01

 Standard Electronic Orientation quadrupole field applied
 Nucleus-field energy     =     0.0000000141 hartrees
 Guess from superposition of atomic densities
 Warning:  Energy on first SCF cycle will be non-variational
 SAD guess density has 82.000000 electrons

 -----------------------------------------------------------------------
  General SCF calculation program by
  Eric Jon Sundstrom, Paul Horn, Yuezhi Mao, Dmitri Zuev, Alec White,
  David Stuck, Shaama M.S., Shane Yost, Joonho Lee, David Small,
  Daniel Levine, Susi Lehtola, Hugh Burton, Evgeny Epifanovsky
 -----------------------------------------------------------------------
 Exchange:     0.2700 Hartree-Fock + 1.0000 M06
 Correlation:  1.0000 M06
 Using SG-3 standard quadrature grid
 using 4 threads for integral computing
 -------------------------------------------------------
 OpenMP Integral computing Module                
 Release: version 1.0, May 2013, Q-Chem Inc. Pittsburgh 
 -------------------------------------------------------
 -------------------------------------------------------
 OpenMP BLAS3 based DFT computing Module                
 Release: version 1.0, May 2013, Q-Chem Inc. Pittsburgh 
 -------------------------------------------------------
 A restricted SCF calculation will be
 performed using DIIS
 SCF converges when DIIS error is below 1.0e-08
 ---------------------------------------
  Cycle       Energy         DIIS error
 ---------------------------------------
    1    -658.7245231443      3.50e-02  
    2    -656.5006877562      4.39e-03  
    3    -656.4588170521      4.86e-03  
    4    -656.7446194434      4.12e-04  
    5    -656.7451625679      3.45e-04  
    6    -656.7463765805      7.70e-05  
    7    -656.7464340925      3.66e-05  
    8    -656.7464494072      9.87e-06  
    9    -656.7464504731      3.87e-06  
   10    -656.7464506280      1.66e-06  
   11    -656.7464506563      6.49e-07  
   12    -656.7464506612      1.50e-07  
   13    -656.7464506615      3.40e-08  
   14    -656.7464506615      1.01e-08  
   15    -656.7464506615      3.41e-09  Convergence criterion met
 ---------------------------------------
 SCF time:   CPU 312.33s  wall 78.00s 
 SCF   energy in the final basis set =     -656.7464506615
 Total energy in the final basis set =     -656.7464506615
 
 --------------------------------------------------------------
 
                    Orbital Energies (a.u.)
 --------------------------------------------------------------
 
 Alpha MOs
 -- Occupied --
-66.245 -14.386 -10.276 -10.264 -10.263 -10.253 -10.252 -10.211
-10.211 -10.204  -5.353  -3.673  -3.672  -3.672  -0.953  -0.820
 -0.774  -0.721  -0.689  -0.686  -0.641  -0.637  -0.541  -0.497
 -0.488  -0.459  -0.430  -0.424  -0.421  -0.417  -0.411  -0.401
 -0.399  -0.394  -0.389  -0.327  -0.317  -0.311  -0.305  -0.275
 -0.262
 -- Virtual --
 -0.038  -0.036  -0.027  -0.026  -0.021  -0.014  -0.005  -0.004
  0.009   0.020   0.023   0.024   0.028   0.040   0.050   0.050
  0.057   0.059   0.060   0.066   0.076   0.077   0.083   0.093
  0.099   0.103   0.103   0.108   0.113   0.115   0.121   0.126
  0.131   0.141   0.146   0.148   0.153   0.159   0.161   0.168
  0.173   0.175   0.180   0.187   0.191   0.194   0.197   0.203
  0.210   0.212   0.228   0.232   0.252   0.256   0.258   0.274
  0.279   0.283   0.291   0.306   0.312   0.319   0.321   0.336
  0.345   0.348   0.357   0.389   0.428   0.451   0.486   0.492
  0.495   0.498   0.503   0.512   0.521   0.526   0.530   0.547
  0.551   0.560   0.573   0.583   0.597   0.598   0.611   0.617
  0.625   0.628   0.651   0.655   0.658   0.670   0.674   0.685
  0.690   0.699   0.710   0.711   0.724   0.749   0.750   0.760
  0.788   0.790   0.803   0.824   0.837   0.845   0.857   0.872
  0.881   0.899   0.904   0.931   0.942   0.960   0.980   0.984
  1.029   1.030   1.046   1.060   1.068   1.078   1.103   1.135
  1.136   1.173   1.215   1.238   1.258   1.260   1.318   1.341
  1.457   1.459   1.463   1.468   1.485   1.490   1.491   1.512
  1.533   1.535   1.561   1.563   1.572   1.584   1.601   1.603
  1.609   1.617   1.620   1.632   1.650   1.690   1.705   1.714
  1.722   1.730   1.762   1.772   1.781   1.788   1.799   1.804
  1.811   1.829   1.863   1.885   1.908   1.929   1.977   2.008
  2.029   2.046   2.062   2.067   2.085   2.126   2.158   2.168
  2.173   2.190   2.227   2.231   2.251   2.263   2.272   2.320
  2.360   2.385   2.394   2.404   2.414   2.423   2.465   2.467
  2.478   2.486   2.492   2.528   2.551   2.555   2.576   2.599
  2.616   2.626   2.639   2.640   2.660   2.675   2.696   2.702
  2.715   2.749   2.792   2.808   2.814   2.833   2.887   2.887
  2.925   2.927   2.953   3.017   3.093   3.174   3.230   3.256
  3.303   3.354   3.415   3.441   3.488   3.657   3.661   3.666
  3.690   3.702   3.715   3.724   3.887   3.937   3.963   3.997
  4.345   4.462   5.202   5.894  11.663  11.699  11.714  23.622
 23.862  23.917  23.940  23.949  23.958  24.034  24.107  35.617
141.305
 --------------------------------------------------------------
 
          Ground-State Mulliken Net Atomic Charges

     Atom                 Charge (a.u.)
  ----------------------------------------
      1 C                    -0.708797
      2 Si                    0.996000
      3 C                    -0.715626
      4 C                    -0.708766
      5 C                    -0.571041
      6 C                     0.046547
      7 N                     0.149914
      8 C                    -0.190063
      9 C                    -0.027911
     10 C                    -0.472131
     11 H                     0.158080
     12 H                     0.173027
     13 H                     0.180204
     14 H                     0.181236
     15 H                     0.167247
     16 H                     0.181233
     17 H                     0.180199
     18 H                     0.158078
     19 H                     0.173024
     20 H                     0.154584
     21 H                     0.155916
     22 H                     0.171032
     23 H                     0.168014
  ----------------------------------------
  Sum of atomic charges =     0.000000

 -----------------------------------------------------------------
                    Cartesian Multipole Moments
 -----------------------------------------------------------------
    Charge (ESU x 10^10)
                 0.0000
    Dipole Moment (Debye)
         X       0.9179      Y       1.5599      Z      -0.0000
       Tot       1.8100
    Quadrupole Moments (Debye-Ang)
        XX     -61.0957     XY       0.9674     YY     -68.8393
        XZ      -0.0000     YZ       0.0001     ZZ     -71.9562
    Octopole Moments (Debye-Ang^2)
       XXX      27.7956    XXY      -1.9454    XYY      10.7810
       YYY       9.3881    XXZ      -0.0002    XYZ       0.0001
       YYZ      -0.0012    XZZ      -3.0509    YZZ      -5.3659
       ZZZ       0.0013
    Hexadecapole Moments (Debye-Ang^3)
      XXXX   -1659.2383   XXXY      -2.0336   XXYY    -384.9309
      XYYY      -2.3641   YYYY    -584.4923   XXXZ      -0.0009
      XXYZ      -0.0002   XYYZ       0.0018   YYYZ       0.0001
      XXZZ    -389.4322   XYZZ       5.6014   YYZZ    -163.4523
      XZZZ      -0.0014   YZZZ       0.0007   ZZZZ    -352.4331
 -----------------------------------------------------------------
 Calculating analytic gradient of the SCF energy
 Gradient of SCF Energy
            1           2           3           4           5           6
    1  -0.0019147   0.0033294  -0.0021335  -0.0019150  -0.0069179  -0.0029673
    2   0.0022729   0.0005425  -0.0041698   0.0022723   0.0022437   0.0058407
    3   0.0031686  -0.0000003   0.0000004  -0.0031685  -0.0000001  -0.0000003
            7           8           9          10          11          12
    1  -0.0037818   0.0055306   0.0080003   0.0042226  -0.0006899   0.0000822
    2  -0.0075043  -0.0063097  -0.0008980   0.0063280   0.0001867   0.0002887
    3   0.0000006  -0.0000004   0.0000001  -0.0000001   0.0004497   0.0005431
           13          14          15          16          17          18
    1  -0.0001409  -0.0000856   0.0000157  -0.0000860  -0.0001410  -0.0006893
    2  -0.0000075  -0.0007170  -0.0008124  -0.0007163  -0.0000085   0.0001875
    3   0.0013338  -0.0006931   0.0000001   0.0006930  -0.0013341  -0.0004496
           19          20          21          22          23
    1   0.0000823   0.0010984  -0.0008655  -0.0002662   0.0002334
    2   0.0002886  -0.0000492  -0.0003592   0.0001517   0.0009485
    3  -0.0005434   0.0000004   0.0000000   0.0000000  -0.0000000
 Max gradient component =       8.000E-03
 RMS gradient           =       2.531E-03
 Gradient time:  CPU 78.86 s  wall 44.89 s
 Geometry Optimization Parameters
   NAtoms,    NIC,     NZ,  NCons,   NDum,   NFix, NCnnct, MaxDiis
       23     162       0       0       0       0       0       0


** GEOMETRY OPTIMIZATION IN DELOCALIZED INTERNAL COORDINATES **
   Searching for a Minimum

   Optimization Cycle:   1

                       Coordinates (Angstroms)
     ATOM                X               Y               Z
      1  C        -2.0850696793    0.8939042683    1.5419735370
      2  Si       -1.4596939566   -0.0145836979   -0.0000003472
      3  C        -2.0384225833   -1.8079011422    0.0001695817
      4  C        -2.0850204123    0.8936045215   -1.5421693205
      5  C         0.4489071959    0.0174309374    0.0000144392
      6  C         1.1857047052    1.2147950472    0.0000164529
      7  N         1.0709107235   -1.1854848977    0.0000085598
      8  C         2.4085748166   -1.2117141005   -0.0000020493
      9  C         3.2089581435   -0.0684393025   -0.0000046212
     10  C         2.5785431222    1.1747240293    0.0000057332
     11  H        -1.7477505087    1.9373463115    1.5608710052
     12  H        -3.1817049457    0.9038627062    1.5735253111
     13  H        -1.7305046378    0.4132554311    2.4612932664
     14  H        -1.6639944564   -2.3397519624   -0.8809324812
     15  H        -3.1334045876   -1.8735690685    0.0000951272
     16  H        -1.6641295826   -2.3395446530    0.8814550198
     17  H        -1.7306811334    0.4125881076   -2.4613841852
     18  H        -1.7474196814    1.9369496325   -1.5614131989
     19  H        -3.1816560309    0.9038460513   -1.5736062177
     20  H         0.6694586762    2.1722307449    0.0000318419
     21  H         2.8652078513   -2.2011014977   -0.0000063820
     22  H         4.2918695783   -0.1548871634   -0.0000134431
     23  H         3.1609979363    2.0929158640    0.0000067619
   Point Group: c1    Number of degrees of freedom:    63


   Energy is   -656.746450662


 Attempting to Generate Delocalized Internal Coordinates

 61 Hessian modes will be used to form the next step
  Hessian Eigenvalues:
     0.002000    0.002000    0.002000    0.003138    0.012781    0.021877
     0.022459    0.023009    0.023195    0.023248    0.044919    0.052544
     0.053132    0.053133    0.053884    0.053884    0.054288    0.054767
     0.055270    0.149202    0.151641    0.160000    0.160000    0.160000
     0.160000    0.160000    0.160000    0.160000    0.160000    0.160000
     0.160000    0.160000    0.160000    0.160000    0.191241    0.198190
     0.198191    0.204556    0.220000    0.224223    0.244144    0.250000
     0.340010    0.340011    0.340217    0.340414    0.340414    0.340938
     0.340939    0.342216    0.342217    0.348497    0.350743    0.351207
     0.352371    0.417191    0.443571    0.455368    0.465934    0.527775
     0.562529

 Minimum Search - Taking Simple RFO Step
 Searching for Lamda that Minimizes Along All modes
 Value Taken    Lamda =  -0.00186525
 Step Taken.  Stepsize is  0.110232

                             Maximum     Tolerance    Cnvgd?
         Gradient           0.011306      0.000001      NO
         Displacement       0.047852      0.000010      NO
         Energy change     *********      0.000000      NO


 New Cartesian Coordinates Obtained by Inverse Iteration

 Displacement from previous Coordinates is:  0.296253
 ----------------------------------------------------------------
             Standard Nuclear Orientation (Angstroms)
    I     Atom           X                Y                Z
 ----------------------------------------------------------------
    1      C      -2.0594769487     0.8861470258     1.5270571710
    2      Si     -1.4549652795    -0.0250489679    -0.0000030751
    3      C      -2.0412478926    -1.7975370219     0.0001757247
    4      C      -2.0594435127     0.8858335981    -1.5272628052
    5      C       0.4419227958     0.0037443288     0.0000072546
    6      C       1.1588009587     1.2014696788     0.0000265988
    7      N       1.0652128796    -1.1882072904    -0.0000141982
    8      C       2.3950739632    -1.2001833464    -0.0000164290
    9      C       3.1793807509    -0.0560158462     0.0000001431
   10      C       2.5428125917     1.1740504234     0.0000229329
   11      H      -1.6923299861     1.9195053743     1.5464667980
   12      H      -3.1558642924     0.9207912509     1.5526566136
   13      H      -1.7160561232     0.3923985923     2.4416736002
   14      H      -1.6694048123    -2.3295617600    -0.8802415157
   15      H      -3.1369248628    -1.8492817379     0.0001154035
   16      H      -1.6695125559    -2.3293557343     0.8807647919
   17      H      -1.7162394266     0.3917342758    -2.4417704128
   18      H      -1.6920458228     1.9190952709    -1.5470177633
   19      H      -3.1558249456     0.9207359288    -1.5527540694
   20      H       0.6263073909     2.1509368662     0.0000470988
   21      H       2.8676878643    -2.1820983813    -0.0000328725
   22      H       4.2633801703    -0.1335796384    -0.0000044545
   23      H       3.1184376483     2.0949032774     0.0000378555
 ----------------------------------------------------------------
 Molecular Point Group                 C1    NOp =  1
 Largest Abelian Subgroup              C1    NOp =  1
 Nuclear Repulsion Energy =   592.9453037744 hartrees
 There are       41 alpha and       41 beta electrons
 Applying Cartesian multipole field
    Component          Value
    ---------          -----
     (2,0,0)        1.00000E-11
     (0,2,0)        2.00000E-11
     (0,0,2)       -3.00000E-11
 Nucleus-field energy     =     0.0000000139 hartrees
 Requested basis set is 6-311+G(d,p)
 There are 119 shells and 306 basis functions
 A cutoff of  1.0D-11 yielded   5915 shell pairs
 There are     40681 function pairs (     43347 Cartesian)
 Smallest overlap matrix eigenvalue = 4.10E-06
 Guess MOs from SCF MO coefficient file
 Reading MOs from coefficient file
 Reading MOs from coefficient file

 -----------------------------------------------------------------------
  General SCF calculation program by
  Eric Jon Sundstrom, Paul Horn, Yuezhi Mao, Dmitri Zuev, Alec White,
  David Stuck, Shaama M.S., Shane Yost, Joonho Lee, David Small,
  Daniel Levine, Susi Lehtola, Hugh Burton, Evgeny Epifanovsky
 -----------------------------------------------------------------------
 Exchange:     0.2700 Hartree-Fock + 1.0000 M06
 Correlation:  1.0000 M06
 Using SG-3 standard quadrature grid
 using 4 threads for integral computing
 -------------------------------------------------------
 OpenMP Integral computing Module                
 Release: version 1.0, May 2013, Q-Chem Inc. Pittsburgh 
 -------------------------------------------------------
 -------------------------------------------------------
 OpenMP BLAS3 based DFT computing Module                
 Release: version 1.0, May 2013, Q-Chem Inc. Pittsburgh 
 -------------------------------------------------------
 A restricted SCF calculation will be
 performed using DIIS
 SCF converges when DIIS error is below 1.0e-08
 ---------------------------------------
  Cycle       Energy         DIIS error
 ---------------------------------------
    1    -656.7851469756      5.57e-04  
    2    -656.7471855259      1.18e-04  
    3    -656.7471979205      1.24e-04  
    4    -656.7473815479      1.58e-05  
    5    -656.7473833087      9.35e-06  
    6    -656.7473841894      2.39e-06  
    7    -656.7473842492      1.04e-06  
    8    -656.7473842621      3.11e-07  
    9    -656.7473842633      9.69e-08  
   10    -656.7473842634      5.01e-08  
   11    -656.7473842634      1.11e-08  
   12    -656.7473842634      4.46e-09  Convergence criterion met
 ---------------------------------------
 SCF time:   CPU 256.62s  wall 64.00s 
 SCF   energy in the final basis set =     -656.7473842634
 Total energy in the final basis set =     -656.7473842634
 
 --------------------------------------------------------------
 
                    Orbital Energies (a.u.)
 --------------------------------------------------------------
 
 Alpha MOs
 -- Occupied --
-66.240 -14.384 -10.273 -10.261 -10.260 -10.251 -10.250 -10.210
-10.210 -10.203  -5.349  -3.668  -3.668  -3.668  -0.958  -0.823
 -0.776  -0.724  -0.690  -0.687  -0.643  -0.638  -0.543  -0.500
 -0.486  -0.458  -0.432  -0.425  -0.424  -0.418  -0.412  -0.401
 -0.400  -0.395  -0.389  -0.326  -0.318  -0.312  -0.307  -0.275
 -0.261
 -- Virtual --
 -0.038  -0.034  -0.026  -0.025  -0.021  -0.015  -0.005  -0.004
  0.009   0.020   0.023   0.024   0.028   0.040   0.050   0.050
  0.057   0.059   0.061   0.066   0.077   0.077   0.085   0.093
  0.099   0.103   0.103   0.110   0.115   0.118   0.122   0.128
  0.132   0.142   0.147   0.150   0.153   0.160   0.163   0.167
  0.174   0.175   0.181   0.191   0.192   0.195   0.197   0.205
  0.211   0.214   0.230   0.233   0.252   0.259   0.260   0.277
  0.280   0.284   0.293   0.308   0.316   0.320   0.323   0.340
  0.348   0.348   0.361   0.392   0.429   0.452   0.488   0.491
  0.499   0.502   0.504   0.512   0.520   0.527   0.533   0.548
  0.552   0.561   0.577   0.583   0.599   0.599   0.614   0.617
  0.627   0.629   0.652   0.656   0.658   0.673   0.675   0.691
  0.694   0.699   0.711   0.711   0.725   0.750   0.751   0.763
  0.790   0.792   0.807   0.828   0.843   0.858   0.866   0.876
  0.881   0.903   0.904   0.934   0.944   0.962   0.981   0.985
  1.031   1.033   1.048   1.060   1.072   1.081   1.108   1.140
  1.142   1.177   1.222   1.244   1.263   1.264   1.319   1.340
  1.456   1.457   1.466   1.466   1.491   1.494   1.501   1.518
  1.540   1.543   1.565   1.567   1.574   1.586   1.601   1.610
  1.612   1.618   1.623   1.632   1.654   1.694   1.708   1.717
  1.723   1.734   1.767   1.777   1.788   1.793   1.807   1.810
  1.820   1.835   1.870   1.891   1.916   1.935   1.984   2.014
  2.030   2.051   2.060   2.072   2.088   2.132   2.157   2.173
  2.175   2.193   2.230   2.236   2.256   2.269   2.277   2.334
  2.367   2.391   2.400   2.412   2.419   2.431   2.472   2.472
  2.480   2.488   2.502   2.534   2.562   2.564   2.586   2.608
  2.618   2.633   2.641   2.642   2.664   2.680   2.703   2.706
  2.726   2.761   2.806   2.818   2.819   2.837   2.894   2.903
  2.933   2.936   2.970   3.025   3.108   3.193   3.247   3.270
  3.318   3.366   3.431   3.453   3.509   3.662   3.662   3.669
  3.694   3.705   3.720   3.728   3.892   3.942   3.968   4.002
  4.354   4.474   5.220   5.913  11.678  11.711  11.730  23.627
 23.881  23.919  23.945  23.956  23.982  24.064  24.142  35.634
141.330
 --------------------------------------------------------------
 
          Ground-State Mulliken Net Atomic Charges

     Atom                 Charge (a.u.)
  ----------------------------------------
      1 C                    -0.702171
      2 Si                    0.976474
      3 C                    -0.706952
      4 C                    -0.702142
      5 C                    -0.585725
      6 C                     0.074714
      7 N                     0.145774
      8 C                    -0.187971
      9 C                    -0.024661
     10 C                    -0.475896
     11 H                     0.156865
     12 H                     0.172340
     13 H                     0.179870
     14 H                     0.181185
     15 H                     0.167335
     16 H                     0.181182
     17 H                     0.179866
     18 H                     0.156866
     19 H                     0.172336
     20 H                     0.152087
     21 H                     0.152911
     22 H                     0.169458
     23 H                     0.166253
  ----------------------------------------
  Sum of atomic charges =     0.000000

 -----------------------------------------------------------------
                    Cartesian Multipole Moments
 -----------------------------------------------------------------
    Charge (ESU x 10^10)
                 0.0000
    Dipole Moment (Debye)
         X       0.8904      Y       1.5522      Z       0.0000
       Tot       1.7895
    Quadrupole Moments (Debye-Ang)
        XX     -61.1886     XY       1.0333     YY     -68.9232
        XZ       0.0000     YZ       0.0001     ZZ     -71.8319
    Octopole Moments (Debye-Ang^2)
       XXX      27.3513    XXY      -1.6854    XYY      10.7992
       YYY       9.9815    XXZ       0.0001    XYZ       0.0002
       YYZ      -0.0011    XZZ      -2.3764    YZZ      -5.3978
       ZZZ       0.0016
    Hexadecapole Moments (Debye-Ang^3)
      XXXX   -1633.0224   XXXY      -4.1944   XXYY    -380.3624
      XYYY      -3.8012   YYYY    -580.1920   XXXZ      -0.0016
      XXYZ      -0.0000   XYYZ       0.0018   YYYZ      -0.0013
      XXZZ    -383.0524   XYZZ       5.5090   YYZZ    -161.4775
      XZZZ      -0.0028   YZZZ      -0.0011   ZZZZ    -347.8325
 -----------------------------------------------------------------
 Calculating analytic gradient of the SCF energy
 Gradient of SCF Energy
            1           2           3           4           5           6
    1   0.0000549   0.0010859  -0.0001677   0.0000549   0.0005520   0.0004329
    2  -0.0000062  -0.0001435  -0.0004890  -0.0000060   0.0018584  -0.0011559
    3   0.0000823   0.0000000  -0.0000002  -0.0000821  -0.0000001  -0.0000002
            7           8           9          10          11          12
    1  -0.0010226   0.0007585  -0.0005306  -0.0002620  -0.0000760  -0.0000605
    2  -0.0011024   0.0012004   0.0000788  -0.0007149   0.0001946  -0.0001944
    3  -0.0000000   0.0000002  -0.0000000   0.0000001  -0.0000161  -0.0001604
           13          14          15          16          17          18
    1   0.0000156   0.0000280  -0.0000115   0.0000279   0.0000156  -0.0000757
    2  -0.0000069   0.0001061   0.0000231   0.0001062  -0.0000071   0.0001944
    3  -0.0000302  -0.0000619  -0.0000001   0.0000620   0.0000302   0.0000160
           19          20          21          22          23
    1  -0.0000605   0.0001765  -0.0005342  -0.0001057  -0.0002956
    2  -0.0001941   0.0001432   0.0000891   0.0000921  -0.0000662
    3   0.0001604   0.0000001   0.0000000  -0.0000001  -0.0000000
 Max gradient component =       1.858E-03
 RMS gradient           =       4.278E-04
 Gradient time:  CPU 79.73 s  wall 45.41 s
 Geometry Optimization Parameters
   NAtoms,    NIC,     NZ,  NCons,   NDum,   NFix, NCnnct, MaxDiis
       23     162       0       0       0       0       0       0

 Cartesian Hessian Update
 Hessian Updated using BFGS Update


** GEOMETRY OPTIMIZATION IN DELOCALIZED INTERNAL COORDINATES **
   Searching for a Minimum

   Optimization Cycle:   2

                       Coordinates (Angstroms)
     ATOM                X               Y               Z
      1  C        -2.0594769487    0.8861470258    1.5270571710
      2  Si       -1.4549652795   -0.0250489679   -0.0000030751
      3  C        -2.0412478926   -1.7975370219    0.0001757247
      4  C        -2.0594435127    0.8858335981   -1.5272628052
      5  C         0.4419227958    0.0037443288    0.0000072546
      6  C         1.1588009587    1.2014696788    0.0000265988
      7  N         1.0652128796   -1.1882072904   -0.0000141982
      8  C         2.3950739632   -1.2001833464   -0.0000164290
      9  C         3.1793807509   -0.0560158462    0.0000001431
     10  C         2.5428125917    1.1740504234    0.0000229329
     11  H        -1.6923299861    1.9195053743    1.5464667980
     12  H        -3.1558642924    0.9207912509    1.5526566136
     13  H        -1.7160561232    0.3923985923    2.4416736002
     14  H        -1.6694048123   -2.3295617600   -0.8802415157
     15  H        -3.1369248628   -1.8492817379    0.0001154035
     16  H        -1.6695125559   -2.3293557343    0.8807647919
     17  H        -1.7162394266    0.3917342758   -2.4417704128
     18  H        -1.6920458228    1.9190952709   -1.5470177633
     19  H        -3.1558249456    0.9207359288   -1.5527540694
     20  H         0.6263073909    2.1509368662    0.0000470988
     21  H         2.8676878643   -2.1820983813   -0.0000328725
     22  H         4.2633801703   -0.1335796384   -0.0000044545
     23  H         3.1184376483    2.0949032774    0.0000378555
   Point Group: c1    Number of degrees of freedom:    63


   Energy is   -656.747384263

 Hessian Updated using BFGS Update

 49 Hessian modes will be used to form the next step
  Hessian Eigenvalues:
     0.001989    0.002000    0.003138    0.021877    0.022459    0.023009
     0.023093    0.023195    0.023248    0.044690    0.052544    0.052895
     0.053133    0.053884    0.053888    0.054247    0.054288    0.055270
     0.149202    0.150697    0.157185    0.161036    0.191629    0.198190
     0.198691    0.202591    0.220143    0.224224    0.243600    0.249754
     0.340010    0.340013    0.340217    0.340374    0.340414    0.340939
     0.341019    0.342216    0.342217    0.348489    0.350757    0.351411
     0.352345    0.418399    0.446851    0.464326    0.476128    0.535798
     0.565144

 Minimum Search - Taking Simple RFO Step
 Searching for Lamda that Minimizes Along All modes
 Value Taken    Lamda =  -0.00006828
 Step Taken.  Stepsize is  0.100606

                             Maximum     Tolerance    Cnvgd?
         Gradient           0.001757      0.000001      NO
         Displacement       0.055175      0.000010      NO
         Energy change     -0.000934      0.000000      NO


 New Cartesian Coordinates Obtained by Inverse Iteration

 Displacement from previous Coordinates is:  0.145127
 ----------------------------------------------------------------
             Standard Nuclear Orientation (Angstroms)
    I     Atom           X                Y                Z
 ----------------------------------------------------------------
    1      C      -2.0559171897     0.8841057228     1.5274090204
    2      Si     -1.4577527808    -0.0300769797    -0.0000044744
    3      C      -2.0490945795    -1.7996049039     0.0001875980
    4      C      -2.0558919375     0.8837688842    -1.5276289326
    5      C       0.4410674768    -0.0026128851     0.0000049218
    6      C       1.1525338902     1.1994476352     0.0000442800
    7      N       1.0717893314    -1.1904696675    -0.0000371830
    8      C       2.4014773300    -1.1975853165    -0.0000397480
    9      C       3.1800177229    -0.0489200519    -0.0000013471
   10      C       2.5374603723     1.1788254820     0.0000412748
   11      H      -1.6636025206     1.9076700917     1.5569349154
   12      H      -3.1511985179     0.9457571692     1.5452051378
   13      H      -1.7315854162     0.3766448381     2.4414631206
   14      H      -1.6792512272    -2.3334724278    -0.8798960118
   15      H      -3.1449150435    -1.8477505454     0.0001459214
   16      H      -1.6793280330    -2.3332648596     0.8804310390
   17      H      -1.7317319022     0.3759853701    -2.4415640141
   18      H      -1.6633842860     1.9072487984    -1.5574838564
   19      H      -3.1511629013     0.9456218169    -1.5453499802
   20      H       0.6138681772     2.1453921809     0.0000784649
   21      H       2.8816223522    -2.1763606174    -0.0000730738
   22      H       4.2645263892    -0.1217197030    -0.0000050487
   23      H       3.1101338458     2.1018461351     0.0000723668
 ----------------------------------------------------------------
 Molecular Point Group                 C1    NOp =  1
 Largest Abelian Subgroup              C1    NOp =  1
 Nuclear Repulsion Energy =   592.8159264772 hartrees
 There are       41 alpha and       41 beta electrons
 Applying Cartesian multipole field
    Component          Value
    ---------          -----
     (2,0,0)        1.00000E-11
     (0,2,0)        2.00000E-11
     (0,0,2)       -3.00000E-11
 Nucleus-field energy     =     0.0000000139 hartrees
 Requested basis set is 6-311+G(d,p)
 There are 119 shells and 306 basis functions
 A cutoff of  1.0D-11 yielded   5914 shell pairs
 There are     40676 function pairs (     43341 Cartesian)
 Smallest overlap matrix eigenvalue = 4.14E-06
 Guess MOs from SCF MO coefficient file
 Reading MOs from coefficient file
 Reading MOs from coefficient file

 -----------------------------------------------------------------------
  General SCF calculation program by
  Eric Jon Sundstrom, Paul Horn, Yuezhi Mao, Dmitri Zuev, Alec White,
  David Stuck, Shaama M.S., Shane Yost, Joonho Lee, David Small,
  Daniel Levine, Susi Lehtola, Hugh Burton, Evgeny Epifanovsky
 -----------------------------------------------------------------------
 Exchange:     0.2700 Hartree-Fock + 1.0000 M06
 Correlation:  1.0000 M06
 Using SG-3 standard quadrature grid
 using 4 threads for integral computing
 -------------------------------------------------------
 OpenMP Integral computing Module                
 Release: version 1.0, May 2013, Q-Chem Inc. Pittsburgh 
 -------------------------------------------------------
 -------------------------------------------------------
 OpenMP BLAS3 based DFT computing Module                
 Release: version 1.0, May 2013, Q-Chem Inc. Pittsburgh 
 -------------------------------------------------------
 A restricted SCF calculation will be
 performed using DIIS
 SCF converges when DIIS error is below 1.0e-08
 ---------------------------------------
  Cycle       Energy         DIIS error
 ---------------------------------------
    1    -656.7465650580      2.08e-04  
    2    -656.7474260715      1.77e-05  
    3    -656.7474286279      1.82e-05  
    4    -656.7474320610      6.20e-06  
    5    -656.7474324631      2.75e-06  
    6    -656.7474325533      5.87e-07  
    7    -656.7474325567      2.33e-07  
    8    -656.7474325572      7.21e-08  
    9    -656.7474325573      1.50e-08  
   10    -656.7474325573      5.73e-09  Convergence criterion met
 ---------------------------------------
 SCF time:   CPU 215.09s  wall 54.00s 
 SCF   energy in the final basis set =     -656.7474325573
 Total energy in the final basis set =     -656.7474325573
 
 --------------------------------------------------------------
 
                    Orbital Energies (a.u.)
 --------------------------------------------------------------
 
 Alpha MOs
 -- Occupied --
-66.240 -14.384 -10.273 -10.261 -10.260 -10.251 -10.250 -10.210
-10.210 -10.203  -5.349  -3.668  -3.668  -3.668  -0.958  -0.823
 -0.776  -0.724  -0.690  -0.687  -0.642  -0.638  -0.542  -0.500
 -0.486  -0.458  -0.432  -0.425  -0.423  -0.418  -0.413  -0.401
 -0.400  -0.395  -0.390  -0.327  -0.318  -0.312  -0.306  -0.275
 -0.261
 -- Virtual --
 -0.038  -0.034  -0.026  -0.025  -0.021  -0.014  -0.005  -0.004
  0.009   0.020   0.023   0.024   0.028   0.040   0.050   0.050
  0.057   0.059   0.061   0.066   0.077   0.077   0.085   0.093
  0.099   0.103   0.103   0.109   0.115   0.118   0.122   0.128
  0.132   0.141   0.147   0.150   0.153   0.160   0.163   0.167
  0.174   0.175   0.180   0.191   0.192   0.194   0.197   0.205
  0.210   0.214   0.230   0.233   0.252   0.259   0.261   0.277
  0.279   0.285   0.293   0.307   0.316   0.321   0.323   0.341
  0.347   0.348   0.361   0.391   0.429   0.452   0.488   0.491
  0.499   0.502   0.504   0.511   0.520   0.528   0.533   0.547
  0.552   0.561   0.577   0.582   0.599   0.599   0.614   0.617
  0.627   0.629   0.652   0.656   0.658   0.672   0.675   0.692
  0.694   0.699   0.712   0.712   0.724   0.750   0.751   0.764
  0.790   0.791   0.807   0.828   0.842   0.858   0.866   0.876
  0.880   0.903   0.904   0.935   0.944   0.963   0.981   0.986
  1.030   1.033   1.048   1.059   1.072   1.081   1.108   1.140
  1.143   1.178   1.222   1.244   1.261   1.263   1.319   1.340
  1.456   1.456   1.466   1.466   1.492   1.493   1.502   1.518
  1.540   1.543   1.566   1.567   1.574   1.586   1.600   1.610
  1.612   1.618   1.623   1.632   1.653   1.694   1.709   1.717
  1.723   1.733   1.766   1.777   1.788   1.792   1.807   1.811
  1.820   1.835   1.870   1.890   1.915   1.935   1.983   2.014
  2.030   2.050   2.060   2.072   2.089   2.132   2.157   2.173
  2.174   2.193   2.230   2.236   2.256   2.268   2.277   2.335
  2.367   2.391   2.400   2.413   2.421   2.431   2.472   2.473
  2.480   2.487   2.504   2.534   2.561   2.564   2.587   2.607
  2.619   2.632   2.640   2.642   2.663   2.680   2.703   2.706
  2.728   2.762   2.805   2.818   2.819   2.837   2.893   2.903
  2.935   2.936   2.969   3.024   3.107   3.191   3.246   3.271
  3.318   3.365   3.430   3.452   3.508   3.662   3.662   3.669
  3.694   3.705   3.720   3.728   3.893   3.942   3.968   4.002
  4.354   4.471   5.221   5.913  11.678  11.710  11.730  23.627
 23.880  23.919  23.945  23.956  23.980  24.062  24.140  35.635
141.329
 --------------------------------------------------------------
 
          Ground-State Mulliken Net Atomic Charges

     Atom                 Charge (a.u.)
  ----------------------------------------
      1 C                    -0.702345
      2 Si                    0.977835
      3 C                    -0.707528
      4 C                    -0.702320
      5 C                    -0.584212
      6 C                     0.072476
      7 N                     0.144549
      8 C                    -0.187359
      9 C                    -0.023744
     10 C                    -0.474239
     11 H                     0.156644
     12 H                     0.171998
     13 H                     0.179702
     14 H                     0.181326
     15 H                     0.167606
     16 H                     0.181323
     17 H                     0.179698
     18 H                     0.156647
     19 H                     0.171994
     20 H                     0.151449
     21 H                     0.152802
     22 H                     0.169337
     23 H                     0.166359
  ----------------------------------------
  Sum of atomic charges =     0.000000

 -----------------------------------------------------------------
                    Cartesian Multipole Moments
 -----------------------------------------------------------------
    Charge (ESU x 10^10)
                 0.0000
    Dipole Moment (Debye)
         X       0.8614      Y       1.5544      Z       0.0001
       Tot       1.7771
    Quadrupole Moments (Debye-Ang)
        XX     -61.1618     XY       1.0507     YY     -68.9422
        XZ       0.0000     YZ       0.0001     ZZ     -71.8306
    Octopole Moments (Debye-Ang^2)
       XXX      27.2905    XXY      -1.5642    XYY      10.7155
       YYY      10.1451    XXZ       0.0001    XYZ       0.0004
       YYZ      -0.0008    XZZ      -2.4502    YZZ      -5.3557
       ZZZ       0.0019
    Hexadecapole Moments (Debye-Ang^3)
      XXXX   -1633.4983   XXXY      -6.1291   XXYY    -380.2736
      XYYY      -4.5143   YYYY    -580.8070   XXXZ      -0.0016
      XXYZ       0.0002   XYYZ       0.0021   YYYZ      -0.0030
      XXZZ    -383.1168   XYZZ       5.1535   YYZZ    -161.3808
      XZZZ      -0.0032   YZZZ      -0.0036   ZZZZ    -347.9377
 -----------------------------------------------------------------
 Calculating analytic gradient of the SCF energy
 Gradient of SCF Energy
            1           2           3           4           5           6
    1   0.0001000   0.0001854  -0.0000638   0.0001000   0.0000005   0.0001062
    2  -0.0000333  -0.0002659  -0.0000759  -0.0000331   0.0011565  -0.0005424
    3  -0.0000212   0.0000000  -0.0000001   0.0000214  -0.0000002  -0.0000000
            7           8           9          10          11          12
    1  -0.0002998   0.0004023  -0.0002398   0.0000342  -0.0000366  -0.0000572
    2  -0.0003401   0.0003447  -0.0000933  -0.0002424   0.0000854  -0.0001310
    3   0.0000001  -0.0000000   0.0000001   0.0000000  -0.0000217  -0.0001071
           13          14          15          16          17          18
    1  -0.0000139   0.0000234  -0.0000053   0.0000233  -0.0000139  -0.0000365
    2   0.0000201   0.0000657   0.0000678   0.0000657   0.0000200   0.0000852
    3  -0.0000421   0.0000317  -0.0000001  -0.0000316   0.0000420   0.0000215
           19          20          21          22          23
    1  -0.0000572  -0.0000471  -0.0000204  -0.0000119  -0.0000718
    2  -0.0001307   0.0000335  -0.0000599  -0.0000116   0.0000152
    3   0.0001071   0.0000001   0.0000001  -0.0000000  -0.0000000
 Max gradient component =       1.156E-03
 RMS gradient           =       1.907E-04
 Gradient time:  CPU 79.72 s  wall 45.48 s
 Geometry Optimization Parameters
   NAtoms,    NIC,     NZ,  NCons,   NDum,   NFix, NCnnct, MaxDiis
       23     162       0       0       0       0       0       0

 Cartesian Hessian Update
 Hessian Updated using BFGS Update


** GEOMETRY OPTIMIZATION IN DELOCALIZED INTERNAL COORDINATES **
   Searching for a Minimum

   Optimization Cycle:   3

                       Coordinates (Angstroms)
     ATOM                X               Y               Z
      1  C        -2.0559171897    0.8841057228    1.5274090204
      2  Si       -1.4577527808   -0.0300769797   -0.0000044744
      3  C        -2.0490945795   -1.7996049039    0.0001875980
      4  C        -2.0558919375    0.8837688842   -1.5276289326
      5  C         0.4410674768   -0.0026128851    0.0000049218
      6  C         1.1525338902    1.1994476352    0.0000442800
      7  N         1.0717893314   -1.1904696675   -0.0000371830
      8  C         2.4014773300   -1.1975853165   -0.0000397480
      9  C         3.1800177229   -0.0489200519   -0.0000013471
     10  C         2.5374603723    1.1788254820    0.0000412748
     11  H        -1.6636025206    1.9076700917    1.5569349154
     12  H        -3.1511985179    0.9457571692    1.5452051378
     13  H        -1.7315854162    0.3766448381    2.4414631206
     14  H        -1.6792512272   -2.3334724278   -0.8798960118
     15  H        -3.1449150435   -1.8477505454    0.0001459214
     16  H        -1.6793280330   -2.3332648596    0.8804310390
     17  H        -1.7317319022    0.3759853701   -2.4415640141
     18  H        -1.6633842860    1.9072487984   -1.5574838564
     19  H        -3.1511629013    0.9456218169   -1.5453499802
     20  H         0.6138681772    2.1453921809    0.0000784649
     21  H         2.8816223522   -2.1763606174   -0.0000730738
     22  H         4.2645263892   -0.1217197030   -0.0000050487
     23  H         3.1101338458    2.1018461351    0.0000723668
   Point Group: c1    Number of degrees of freedom:    63


   Energy is   -656.747432557

 Hessian Updated using BFGS Update

 50 Hessian modes will be used to form the next step
  Hessian Eigenvalues:
     0.001429    0.002000    0.003138    0.012781    0.021877    0.022459
     0.023093    0.023248    0.023343    0.041668    0.051497    0.052544
     0.053133    0.053854    0.053884    0.054288    0.054383    0.055280
     0.141675    0.149202    0.155489    0.160158    0.163381    0.195005
     0.198190    0.199264    0.202730    0.214095    0.221030    0.225896
     0.256424    0.339909    0.340010    0.340216    0.340269    0.340414
     0.340939    0.340999    0.342216    0.342344    0.349825    0.350753
     0.351876    0.352591    0.417644    0.451909    0.457276    0.467757
     0.544009    0.570260

 Minimum Search - Taking Simple RFO Step
 Searching for Lamda that Minimizes Along All modes
 Value Taken    Lamda =  -0.00003305
 Step Taken.  Stepsize is  0.113831

                             Maximum     Tolerance    Cnvgd?
         Gradient           0.000920      0.000001      NO
         Displacement       0.064414      0.000010      NO
         Energy change     -0.000048      0.000000      NO


 New Cartesian Coordinates Obtained by Inverse Iteration

 Displacement from previous Coordinates is:  0.159245
 ----------------------------------------------------------------
             Standard Nuclear Orientation (Angstroms)
    I     Atom           X                Y                Z
 ----------------------------------------------------------------
    1      C      -2.0511978343     0.8823135965     1.5290689604
    2      Si     -1.4601406295    -0.0345944501    -0.0000024699
    3      C      -2.0554326548    -1.8027650697     0.0001932534
    4      C      -2.0511730233     0.8819668284    -1.5292910560
    5      C       0.4394730365    -0.0093258476     0.0000101173
    6      C       1.1451690655     1.1973024046     0.0000467316
    7      N       1.0760298603    -1.1933827849    -0.0000368257
    8      C       2.4052826316    -1.1940800752    -0.0000429872
    9      C       3.1785249532    -0.0411314623    -0.0000048646
   10      C       2.5302683187     1.1838893843     0.0000400343
   11      H      -1.6311470771     1.8941369690     1.5708448365
   12      H      -3.1442988560     0.9744398806     1.5391098459
   13      H      -1.7481207984     0.3593264860     2.4417800045
   14      H      -1.6871895199    -2.3380934266    -0.8798028116
   15      H      -3.1513127053    -1.8491311959     0.0001768272
   16      H      -1.6872247142    -2.3378972687     0.8803246496
   17      H      -1.7481826313     0.3587128581    -2.4418770062
   18      H      -1.6310179661     1.8937349738    -1.5713455373
   19      H      -3.1442648124     0.9742013552    -1.5393149029
   20      H       0.6015167231     2.1402524695     0.0000796259
   21      H       2.8912913049    -2.1699049157    -0.0000811854
   22      H       4.2634382325    -0.1087035756    -0.0000106220
   23      H       3.0993896491     2.1092090334     0.0000697732
 ----------------------------------------------------------------
 Molecular Point Group                 C1    NOp =  1
 Largest Abelian Subgroup              C1    NOp =  1
 Nuclear Repulsion Energy =   592.7830089992 hartrees
 There are       41 alpha and       41 beta electrons
 Applying Cartesian multipole field
    Component          Value
    ---------          -----
     (2,0,0)        1.00000E-11
     (0,2,0)        2.00000E-11
     (0,0,2)       -3.00000E-11
 Nucleus-field energy     =     0.0000000139 hartrees
 Requested basis set is 6-311+G(d,p)
 There are 119 shells and 306 basis functions
 A cutoff of  1.0D-11 yielded   5917 shell pairs
 There are     40693 function pairs (     43364 Cartesian)
 Smallest overlap matrix eigenvalue = 4.17E-06
 Guess MOs from SCF MO coefficient file
 Reading MOs from coefficient file
 Reading MOs from coefficient file

 -----------------------------------------------------------------------
  General SCF calculation program by
  Eric Jon Sundstrom, Paul Horn, Yuezhi Mao, Dmitri Zuev, Alec White,
  David Stuck, Shaama M.S., Shane Yost, Joonho Lee, David Small,
  Daniel Levine, Susi Lehtola, Hugh Burton, Evgeny Epifanovsky
 -----------------------------------------------------------------------
 Exchange:     0.2700 Hartree-Fock + 1.0000 M06
 Correlation:  1.0000 M06
 Using SG-3 standard quadrature grid
 using 4 threads for integral computing
 -------------------------------------------------------
 OpenMP Integral computing Module                
 Release: version 1.0, May 2013, Q-Chem Inc. Pittsburgh 
 -------------------------------------------------------
 -------------------------------------------------------
 OpenMP BLAS3 based DFT computing Module                
 Release: version 1.0, May 2013, Q-Chem Inc. Pittsburgh 
 -------------------------------------------------------
 A restricted SCF calculation will be
 performed using DIIS
 SCF converges when DIIS error is below 1.0e-08
 ---------------------------------------
  Cycle       Energy         DIIS error
 ---------------------------------------
    1    -656.7473397975      2.13e-04  
    2    -656.7474413742      1.98e-05  
    3    -656.7474436046      2.18e-05  
    4    -656.7474487840      6.51e-06  
    5    -656.7474492388      2.93e-06  
    6    -656.7474493388      7.19e-07  
    7    -656.7474493438      2.39e-07  
    8    -656.7474493444      6.76e-08  
    9    -656.7474493445      2.16e-08  
   10    -656.7474493445      6.17e-09  Convergence criterion met
 ---------------------------------------
 SCF time:   CPU 213.82s  wall 53.00s 
 SCF   energy in the final basis set =     -656.7474493445
 Total energy in the final basis set =     -656.7474493445
 
 --------------------------------------------------------------
 
                    Orbital Energies (a.u.)
 --------------------------------------------------------------
 
 Alpha MOs
 -- Occupied --
-66.240 -14.384 -10.273 -10.261 -10.260 -10.251 -10.250 -10.210
-10.210 -10.203  -5.349  -3.669  -3.668  -3.668  -0.958  -0.823
 -0.776  -0.724  -0.690  -0.687  -0.642  -0.638  -0.542  -0.500
 -0.487  -0.458  -0.432  -0.425  -0.423  -0.418  -0.413  -0.401
 -0.400  -0.395  -0.390  -0.327  -0.318  -0.312  -0.306  -0.275
 -0.260
 -- Virtual --
 -0.038  -0.034  -0.026  -0.025  -0.021  -0.014  -0.005  -0.004
  0.009   0.020   0.023   0.024   0.028   0.040   0.049   0.051
  0.057   0.059   0.061   0.066   0.077   0.077   0.085   0.093
  0.098   0.103   0.103   0.109   0.116   0.119   0.122   0.129
  0.132   0.141   0.147   0.150   0.153   0.160   0.164   0.168
  0.174   0.176   0.180   0.191   0.192   0.194   0.197   0.205
  0.210   0.213   0.230   0.232   0.251   0.260   0.263   0.277
  0.279   0.285   0.293   0.307   0.317   0.321   0.323   0.341
  0.346   0.348   0.361   0.391   0.429   0.452   0.488   0.490
  0.498   0.502   0.503   0.510   0.520   0.528   0.533   0.546
  0.551   0.561   0.577   0.582   0.598   0.599   0.614   0.617
  0.628   0.628   0.653   0.656   0.657   0.671   0.675   0.692
  0.693   0.699   0.712   0.712   0.724   0.749   0.750   0.764
  0.790   0.791   0.807   0.829   0.842   0.857   0.867   0.877
  0.879   0.903   0.903   0.935   0.944   0.963   0.981   0.988
  1.030   1.033   1.048   1.058   1.072   1.081   1.109   1.140
  1.143   1.178   1.223   1.244   1.259   1.263   1.319   1.340
  1.455   1.456   1.465   1.466   1.492   1.494   1.504   1.518
  1.540   1.543   1.567   1.567   1.573   1.586   1.599   1.610
  1.613   1.618   1.622   1.632   1.653   1.694   1.711   1.716
  1.723   1.733   1.765   1.776   1.787   1.792   1.807   1.811
  1.818   1.835   1.869   1.890   1.915   1.935   1.983   2.014
  2.029   2.050   2.061   2.072   2.090   2.131   2.157   2.173
  2.174   2.194   2.231   2.237   2.255   2.268   2.277   2.336
  2.367   2.390   2.400   2.414   2.423   2.432   2.472   2.475
  2.480   2.487   2.506   2.533   2.560   2.564   2.587   2.607
  2.619   2.632   2.639   2.641   2.663   2.680   2.702   2.706
  2.729   2.762   2.805   2.819   2.819   2.837   2.892   2.904
  2.936   2.937   2.969   3.024   3.107   3.190   3.244   3.271
  3.318   3.364   3.429   3.452   3.507   3.662   3.663   3.670
  3.694   3.705   3.721   3.728   3.893   3.941   3.969   4.003
  4.355   4.470   5.222   5.912  11.678  11.708  11.730  23.627
 23.880  23.919  23.946  23.957  23.978  24.060  24.138  35.636
141.328
 --------------------------------------------------------------
 
          Ground-State Mulliken Net Atomic Charges

     Atom                 Charge (a.u.)
  ----------------------------------------
      1 C                    -0.703051
      2 Si                    0.981852
      3 C                    -0.708873
      4 C                    -0.703035
      5 C                    -0.582959
      6 C                     0.069731
      7 N                     0.144063
      8 C                    -0.187039
      9 C                    -0.022733
     10 C                    -0.472357
     11 H                     0.156385
     12 H                     0.171612
     13 H                     0.179385
     14 H                     0.181300
     15 H                     0.167892
     16 H                     0.181297
     17 H                     0.179383
     18 H                     0.156389
     19 H                     0.171610
     20 H                     0.150832
     21 H                     0.152689
     22 H                     0.169265
     23 H                     0.166362
  ----------------------------------------
  Sum of atomic charges =     0.000000

 -----------------------------------------------------------------
                    Cartesian Multipole Moments
 -----------------------------------------------------------------
    Charge (ESU x 10^10)
                 0.0000
    Dipole Moment (Debye)
         X       0.8390      Y       1.5614      Z       0.0000
       Tot       1.7726
    Quadrupole Moments (Debye-Ang)
        XX     -61.1543     XY       1.0706     YY     -68.9603
        XZ       0.0000     YZ       0.0001     ZZ     -71.8249
    Octopole Moments (Debye-Ang^2)
       XXX      27.2967    XXY      -1.3668    XYY      10.6578
       YYY      10.3176    XXZ      -0.0001    XYZ       0.0004
       YYZ      -0.0008    XZZ      -2.4807    YZZ      -5.3139
       ZZZ       0.0017
    Hexadecapole Moments (Debye-Ang^3)
      XXXX   -1631.9609   XXXY      -8.1005   XXYY    -379.8310
      XYYY      -5.3256   YYYY    -581.7061   XXXZ      -0.0007
      XXYZ       0.0002   XYYZ       0.0022   YYYZ      -0.0031
      XXZZ    -382.7616   XYZZ       4.7487   YYZZ    -161.3711
      XZZZ      -0.0027   YZZZ      -0.0040   ZZZZ    -348.5136
 -----------------------------------------------------------------
 Calculating analytic gradient of the SCF energy
 Gradient of SCF Energy
            1           2           3           4           5           6
    1   0.0000842  -0.0001301   0.0000335   0.0000839  -0.0000667   0.0001001
    2   0.0000062  -0.0001617   0.0000723   0.0000063  -0.0000316   0.0000971
    3  -0.0000017  -0.0000002  -0.0000000   0.0000017   0.0000003   0.0000000
            7           8           9          10          11          12
    1   0.0002031  -0.0003413   0.0000158   0.0000583  -0.0000017  -0.0000313
    2   0.0000474  -0.0001909   0.0001310   0.0000430  -0.0000029  -0.0000335
    3  -0.0000002   0.0000001  -0.0000000   0.0000000  -0.0000025  -0.0000395
           13          14          15          16          17          18
    1  -0.0000278   0.0000005   0.0000068   0.0000004  -0.0000278  -0.0000016
    2   0.0000341  -0.0000347   0.0000617  -0.0000348   0.0000341  -0.0000030
    3   0.0000201   0.0000296  -0.0000000  -0.0000295  -0.0000201   0.0000024
           19          20          21          22          23
    1  -0.0000312  -0.0000659   0.0000752   0.0000298   0.0000336
    2  -0.0000334  -0.0000247   0.0000027   0.0000049   0.0000104
    3   0.0000395  -0.0000000  -0.0000000   0.0000000   0.0000000
 Max gradient component =       3.413E-04
 RMS gradient           =       7.024E-05
 Gradient time:  CPU 79.47 s  wall 45.31 s
 Geometry Optimization Parameters
   NAtoms,    NIC,     NZ,  NCons,   NDum,   NFix, NCnnct, MaxDiis
       23     162       0       0       0       0       0       0

 Cartesian Hessian Update
 Hessian Updated using BFGS Update


** GEOMETRY OPTIMIZATION IN DELOCALIZED INTERNAL COORDINATES **
   Searching for a Minimum

   Optimization Cycle:   4

                       Coordinates (Angstroms)
     ATOM                X               Y               Z
      1  C        -2.0511978343    0.8823135965    1.5290689604
      2  Si       -1.4601406295   -0.0345944501   -0.0000024699
      3  C        -2.0554326548   -1.8027650697    0.0001932534
      4  C        -2.0511730233    0.8819668284   -1.5292910560
      5  C         0.4394730365   -0.0093258476    0.0000101173
      6  C         1.1451690655    1.1973024046    0.0000467316
      7  N         1.0760298603   -1.1933827849   -0.0000368257
      8  C         2.4052826316   -1.1940800752   -0.0000429872
      9  C         3.1785249532   -0.0411314623   -0.0000048646
     10  C         2.5302683187    1.1838893843    0.0000400343
     11  H        -1.6311470771    1.8941369690    1.5708448365
     12  H        -3.1442988560    0.9744398806    1.5391098459
     13  H        -1.7481207984    0.3593264860    2.4417800045
     14  H        -1.6871895199   -2.3380934266   -0.8798028116
     15  H        -3.1513127053   -1.8491311959    0.0001768272
     16  H        -1.6872247142   -2.3378972687    0.8803246496
     17  H        -1.7481826313    0.3587128581   -2.4418770062
     18  H        -1.6310179661    1.8937349738   -1.5713455373
     19  H        -3.1442648124    0.9742013552   -1.5393149029
     20  H         0.6015167231    2.1402524695    0.0000796259
     21  H         2.8912913049   -2.1699049157   -0.0000811854
     22  H         4.2634382325   -0.1087035756   -0.0000106220
     23  H         3.0993896491    2.1092090334    0.0000697732
   Point Group: c1    Number of degrees of freedom:    63


   Energy is   -656.747449344

 Hessian Updated using BFGS Update

 52 Hessian modes will be used to form the next step
  Hessian Eigenvalues:
     0.001411    0.002000    0.003138    0.012781    0.021877    0.023009
     0.023093    0.023195    0.023248    0.023343    0.040434    0.051552
     0.052544    0.053133    0.053884    0.053903    0.054288    0.055120
     0.055348    0.138991    0.149202    0.154796    0.159992    0.160918
     0.163910    0.195775    0.198190    0.199002    0.204204    0.215038
     0.220633    0.225671    0.256328    0.339793    0.340010    0.340219
     0.340323    0.340414    0.340939    0.340965    0.342216    0.342302
     0.349763    0.350734    0.351868    0.352614    0.418042    0.452341
     0.461372    0.473677    0.544396    0.571153

 Minimum Search - Taking Simple RFO Step
 Searching for Lamda that Minimizes Along All modes
 Value Taken    Lamda =  -0.00000109
 Step Taken.  Stepsize is  0.006800

                             Maximum     Tolerance    Cnvgd?
         Gradient           0.000170      0.000001      NO
         Displacement       0.003516      0.000010      NO
         Energy change     -0.000017      0.000000      NO


 New Cartesian Coordinates Obtained by Inverse Iteration

 Displacement from previous Coordinates is:  0.009670
 ----------------------------------------------------------------
             Standard Nuclear Orientation (Angstroms)
    I     Atom           X                Y                Z
 ----------------------------------------------------------------
    1      C      -2.0512600760     0.8823208114     1.5295749441
    2      Si     -1.4604884055    -0.0340723840    -0.0000006989
    3      C      -2.0550956665    -1.8026788847     0.0001848885
    4      C      -2.0512328291     0.8819904761    -1.5297840857
    5      C       0.4390731096    -0.0092541356     0.0000107037
    6      C       1.1447150120     1.1972807928     0.0000269214
    7      N       1.0756453896    -1.1932869676    -0.0000141779
    8      C       2.4050680727    -1.1939379263    -0.0000205397
    9      C       3.1782442727    -0.0411508754    -0.0000031241
   10      C       2.5297749247     1.1837850246     0.0000199966
   11      H      -1.6298455701     1.8935228104     1.5724314531
   12      H      -3.1441815128     0.9759668399     1.5399937838
   13      H      -1.7486241814     0.3579207502     2.4416393414
   14      H      -1.6863337683    -2.3375346474    -0.8799000242
   15      H      -3.1509297317    -1.8503556387     0.0001764054
   16      H      -1.6863558156    -2.3373519147     0.8803911975
   17      H      -1.7486590915     0.3573482876    -2.4417289484
   18      H      -1.6297363348     1.8931474354    -1.5728925294
   19      H      -3.1441469285     0.9757203291    -1.5401999254
   20      H       0.6014810635     2.1404523497     0.0000438796
   21      H       2.8907398825    -2.1698846770    -0.0000405842
   22      H       4.2631211328    -0.1086601492    -0.0000077411
   23      H       3.0987076043     2.1091884603     0.0000332547
 ----------------------------------------------------------------
 Molecular Point Group                 C1    NOp =  1
 Largest Abelian Subgroup              C1    NOp =  1
 Nuclear Repulsion Energy =   592.7884701326 hartrees
 There are       41 alpha and       41 beta electrons
 Applying Cartesian multipole field
    Component          Value
    ---------          -----
     (2,0,0)        1.00000E-11
     (0,2,0)        2.00000E-11
     (0,0,2)       -3.00000E-11
 Nucleus-field energy     =     0.0000000139 hartrees
 Requested basis set is 6-311+G(d,p)
 There are 119 shells and 306 basis functions
 A cutoff of  1.0D-11 yielded   5917 shell pairs
 There are     40693 function pairs (     43364 Cartesian)
 Smallest overlap matrix eigenvalue = 4.17E-06
 Guess MOs from SCF MO coefficient file
 Reading MOs from coefficient file
 Reading MOs from coefficient file

 -----------------------------------------------------------------------
  General SCF calculation program by
  Eric Jon Sundstrom, Paul Horn, Yuezhi Mao, Dmitri Zuev, Alec White,
  David Stuck, Shaama M.S., Shane Yost, Joonho Lee, David Small,
  Daniel Levine, Susi Lehtola, Hugh Burton, Evgeny Epifanovsky
 -----------------------------------------------------------------------
 Exchange:     0.2700 Hartree-Fock + 1.0000 M06
 Correlation:  1.0000 M06
 Using SG-3 standard quadrature grid
 using 4 threads for integral computing
 -------------------------------------------------------
 OpenMP Integral computing Module                
 Release: version 1.0, May 2013, Q-Chem Inc. Pittsburgh 
 -------------------------------------------------------
 -------------------------------------------------------
 OpenMP BLAS3 based DFT computing Module                
 Release: version 1.0, May 2013, Q-Chem Inc. Pittsburgh 
 -------------------------------------------------------
 A restricted SCF calculation will be
 performed using DIIS
 SCF converges when DIIS error is below 1.0e-08
 ---------------------------------------
  Cycle       Energy         DIIS error
 ---------------------------------------
    1    -656.7475675780      1.09e-05  
    2    -656.7474500930      1.71e-06  
    3    -656.7474501008      1.92e-06  
    4    -656.7474501441      3.25e-07  
    5    -656.7474501448      2.14e-07  
    6    -656.7474501453      5.84e-08  
    7    -656.7474501453      1.61e-08  
    8    -656.7474501453      5.85e-09  Convergence criterion met
 ---------------------------------------
 SCF time:   CPU 171.12s  wall 42.00s 
 SCF   energy in the final basis set =     -656.7474501453
 Total energy in the final basis set =     -656.7474501453
 
 --------------------------------------------------------------
 
                    Orbital Energies (a.u.)
 --------------------------------------------------------------
 
 Alpha MOs
 -- Occupied --
-66.240 -14.384 -10.273 -10.261 -10.260 -10.251 -10.250 -10.210
-10.210 -10.203  -5.349  -3.669  -3.668  -3.668  -0.958  -0.823
 -0.776  -0.724  -0.690  -0.687  -0.642  -0.638  -0.542  -0.500
 -0.487  -0.458  -0.432  -0.425  -0.423  -0.418  -0.413  -0.401
 -0.400  -0.395  -0.390  -0.327  -0.318  -0.312  -0.306  -0.275
 -0.260
 -- Virtual --
 -0.038  -0.034  -0.026  -0.025  -0.021  -0.015  -0.005  -0.004
  0.009   0.020   0.023   0.024   0.028   0.040   0.049   0.051
  0.057   0.059   0.061   0.066   0.077   0.077   0.085   0.093
  0.098   0.103   0.103   0.109   0.116   0.119   0.122   0.129
  0.132   0.141   0.147   0.150   0.153   0.160   0.164   0.168
  0.174   0.176   0.180   0.191   0.192   0.194   0.197   0.205
  0.210   0.214   0.230   0.232   0.251   0.260   0.263   0.277
  0.279   0.285   0.293   0.307   0.317   0.321   0.323   0.341
  0.346   0.348   0.361   0.391   0.430   0.452   0.488   0.490
  0.498   0.502   0.503   0.510   0.520   0.528   0.533   0.546
  0.551   0.561   0.577   0.582   0.598   0.599   0.614   0.617
  0.628   0.629   0.653   0.656   0.657   0.671   0.675   0.692
  0.693   0.699   0.712   0.712   0.724   0.749   0.750   0.764
  0.790   0.791   0.807   0.829   0.842   0.857   0.867   0.877
  0.879   0.903   0.903   0.935   0.944   0.963   0.981   0.988
  1.030   1.033   1.048   1.058   1.071   1.081   1.109   1.140
  1.143   1.178   1.223   1.244   1.259   1.263   1.319   1.340
  1.455   1.456   1.465   1.466   1.492   1.494   1.503   1.518
  1.540   1.543   1.567   1.567   1.573   1.586   1.599   1.610
  1.613   1.618   1.622   1.632   1.653   1.694   1.711   1.716
  1.723   1.733   1.764   1.776   1.787   1.792   1.807   1.811
  1.818   1.835   1.869   1.890   1.915   1.935   1.983   2.014
  2.029   2.050   2.062   2.072   2.090   2.132   2.157   2.173
  2.174   2.194   2.231   2.237   2.255   2.268   2.277   2.336
  2.367   2.390   2.400   2.414   2.423   2.432   2.472   2.475
  2.480   2.487   2.506   2.533   2.560   2.564   2.587   2.607
  2.619   2.632   2.639   2.642   2.663   2.680   2.702   2.706
  2.729   2.762   2.805   2.819   2.819   2.837   2.892   2.903
  2.936   2.937   2.969   3.024   3.107   3.190   3.244   3.271
  3.317   3.365   3.429   3.452   3.507   3.662   3.663   3.670
  3.695   3.706   3.721   3.728   3.893   3.941   3.969   4.003
  4.355   4.470   5.222   5.912  11.678  11.708  11.730  23.627
 23.880  23.919  23.946  23.957  23.978  24.061  24.139  35.636
141.328
 --------------------------------------------------------------
 
          Ground-State Mulliken Net Atomic Charges

     Atom                 Charge (a.u.)
  ----------------------------------------
      1 C                    -0.703058
      2 Si                    0.982567
      3 C                    -0.709001
      4 C                    -0.703044
      5 C                    -0.583543
      6 C                     0.069839
      7 N                     0.144057
      8 C                    -0.187055
      9 C                    -0.022714
     10 C                    -0.472290
     11 H                     0.156368
     12 H                     0.171656
     13 H                     0.179317
     14 H                     0.181222
     15 H                     0.167938
     16 H                     0.181220
     17 H                     0.179315
     18 H                     0.156372
     19 H                     0.171654
     20 H                     0.150838
     21 H                     0.152718
     22 H                     0.169276
     23 H                     0.166347
  ----------------------------------------
  Sum of atomic charges =     0.000000

 -----------------------------------------------------------------
                    Cartesian Multipole Moments
 -----------------------------------------------------------------
    Charge (ESU x 10^10)
                 0.0000
    Dipole Moment (Debye)
         X       0.8401      Y       1.5636      Z       0.0000
       Tot       1.7750
    Quadrupole Moments (Debye-Ang)
        XX     -61.1530     XY       1.0647     YY     -68.9617
        XZ       0.0000     YZ       0.0001     ZZ     -71.8243
    Octopole Moments (Debye-Ang^2)
       XXX      27.3258    XXY      -1.3620    XYY      10.6695
       YYY      10.3092    XXZ      -0.0001    XYZ       0.0002
       YYZ      -0.0010    XZZ      -2.4703    YZZ      -5.3190
       ZZZ       0.0015
    Hexadecapole Moments (Debye-Ang^3)
      XXXX   -1631.6050   XXXY      -8.1260   XXYY    -379.7508
      XYYY      -5.2998   YYYY    -581.7083   XXXZ      -0.0004
      XXYZ       0.0000   XYYZ       0.0021   YYYZ      -0.0014
      XXZZ    -382.7017   XYZZ       4.7548   YYZZ    -161.3837
      XZZZ      -0.0024   YZZZ      -0.0017   ZZZZ    -348.7218
 -----------------------------------------------------------------
 Calculating analytic gradient of the SCF energy
 Gradient of SCF Energy
            1           2           3           4           5           6
    1   0.0000256  -0.0000081   0.0000449   0.0000255  -0.0000388   0.0000013
    2  -0.0000020  -0.0000500   0.0000196  -0.0000021   0.0000046   0.0000360
    3   0.0000144  -0.0000002  -0.0000000  -0.0000144   0.0000001   0.0000001
            7           8           9          10          11          12
    1   0.0001036  -0.0001208   0.0000230   0.0000150  -0.0000034  -0.0000162
    2   0.0000246  -0.0000750   0.0000398   0.0000136  -0.0000072  -0.0000124
    3  -0.0000000  -0.0000000   0.0000000  -0.0000000  -0.0000076  -0.0000184
           13          14          15          16          17          18
    1  -0.0000198  -0.0000069  -0.0000070  -0.0000069  -0.0000198  -0.0000033
    2   0.0000226  -0.0000201   0.0000302  -0.0000202   0.0000225  -0.0000072
    3   0.0000155   0.0000103  -0.0000000  -0.0000102  -0.0000155   0.0000076
           19          20          21          22          23
    1  -0.0000161  -0.0000251   0.0000393   0.0000056   0.0000083
    2  -0.0000124  -0.0000164   0.0000127  -0.0000003  -0.0000010
    3   0.0000184  -0.0000000  -0.0000000   0.0000000   0.0000000
 Max gradient component =       1.208E-04
 RMS gradient           =       2.756E-05
 Gradient time:  CPU 79.44 s  wall 45.53 s
 Geometry Optimization Parameters
   NAtoms,    NIC,     NZ,  NCons,   NDum,   NFix, NCnnct, MaxDiis
       23     162       0       0       0       0       0       0

 Cartesian Hessian Update
 Hessian Updated using BFGS Update


** GEOMETRY OPTIMIZATION IN DELOCALIZED INTERNAL COORDINATES **
   Searching for a Minimum

   Optimization Cycle:   5

                       Coordinates (Angstroms)
     ATOM                X               Y               Z
      1  C        -2.0512600760    0.8823208114    1.5295749441
      2  Si       -1.4604884055   -0.0340723840   -0.0000006989
      3  C        -2.0550956665   -1.8026788847    0.0001848885
      4  C        -2.0512328291    0.8819904761   -1.5297840857
      5  C         0.4390731096   -0.0092541356    0.0000107037
      6  C         1.1447150120    1.1972807928    0.0000269214
      7  N         1.0756453896   -1.1932869676   -0.0000141779
      8  C         2.4050680727   -1.1939379263   -0.0000205397
      9  C         3.1782442727   -0.0411508754   -0.0000031241
     10  C         2.5297749247    1.1837850246    0.0000199966
     11  H        -1.6298455701    1.8935228104    1.5724314531
     12  H        -3.1441815128    0.9759668399    1.5399937838
     13  H        -1.7486241814    0.3579207502    2.4416393414
     14  H        -1.6863337683   -2.3375346474   -0.8799000242
     15  H        -3.1509297317   -1.8503556387    0.0001764054
     16  H        -1.6863558156   -2.3373519147    0.8803911975
     17  H        -1.7486590915    0.3573482876   -2.4417289484
     18  H        -1.6297363348    1.8931474354   -1.5728925294
     19  H        -3.1441469285    0.9757203291   -1.5401999254
     20  H         0.6014810635    2.1404523497    0.0000438796
     21  H         2.8907398825   -2.1698846770   -0.0000405842
     22  H         4.2631211328   -0.1086601492   -0.0000077411
     23  H         3.0987076043    2.1091884603    0.0000332547
   Point Group: c1    Number of degrees of freedom:    63


   Energy is   -656.747450145

 Hessian Updated using BFGS Update

 53 Hessian modes will be used to form the next step
  Hessian Eigenvalues:
     0.001425    0.002000    0.002000    0.003138    0.012781    0.021877
     0.022459    0.023009    0.023093    0.023195    0.023248    0.023343
     0.029171    0.048430    0.051597    0.052544    0.053133    0.054288
     0.054357    0.055947    0.119931    0.144538    0.149202    0.156278
     0.160140    0.160912    0.162711    0.195279    0.198190    0.200329
     0.201694    0.215351    0.225567    0.228383    0.255971    0.339192
     0.340210    0.340414    0.340553    0.340938    0.340941    0.342216
     0.342294    0.349653    0.350809    0.351972    0.353386    0.418627
     0.452714    0.462960    0.479647    0.538062    0.573058

 Minimum Search - Taking Simple RFO Step
 Searching for Lamda that Minimizes Along All modes
 Value Taken    Lamda =   0.00000000
 Step Taken.  Stepsize is  0.005115

                             Maximum     Tolerance    Cnvgd?
         Gradient           0.000099      0.000001      NO
         Displacement       0.002022      0.000010      NO
         Energy change     -0.000001      0.000000      NO


 New Cartesian Coordinates Obtained by Inverse Iteration

 Displacement from previous Coordinates is:  0.010717
 ----------------------------------------------------------------
             Standard Nuclear Orientation (Angstroms)
    I     Atom           X                Y                Z
 ----------------------------------------------------------------
    1      C      -2.0512281708     0.8823409302     1.5301906329
    2      Si     -1.4610807208    -0.0333625103     0.0000013420
    3      C      -2.0546901072    -1.8024544433     0.0001675923
    4      C      -2.0512009161     0.8820453565    -1.5303749657
    5      C       0.4384640146    -0.0089257039     0.0000103082
    6      C       1.1443160701     1.1974551754    -0.0000135802
[...]
 C         -0.021  0.023 -0.020   -0.026  0.012 -0.018   -0.016 -0.033  0.015
 Si        -0.000  0.000 -0.007   -0.001  0.002  0.000   -0.001 -0.006  0.000
 C          0.000 -0.000 -0.029    0.036 -0.015  0.000    0.012 -0.003  0.000
 C          0.020 -0.022 -0.020   -0.026  0.012  0.018   -0.016 -0.033 -0.014
 C         -0.000 -0.000  0.002   -0.004 -0.010 -0.000   -0.016 -0.022 -0.000
 C         -0.000  0.000 -0.001   -0.000  0.011  0.000    0.004  0.029  0.000
 N          0.000  0.000  0.000    0.008  0.003 -0.000    0.024  0.001 -0.000
 C         -0.000  0.000 -0.000   -0.015  0.003  0.000   -0.033  0.010  0.000
 C         -0.000 -0.000  0.000   -0.002 -0.015  0.000   -0.009 -0.032  0.000
 C          0.000 -0.000 -0.000    0.014 -0.003  0.000    0.035 -0.011  0.000
 H          0.370 -0.157  0.136    0.315 -0.146  0.195   -0.196  0.049  0.166
 H         -0.051 -0.362  0.045   -0.044 -0.259 -0.039    0.020  0.356 -0.297
 H         -0.041  0.204  0.104    0.078  0.236  0.089    0.400  0.069 -0.072
 H          0.239  0.085  0.025   -0.256  0.198 -0.246   -0.077  0.052 -0.069
 H          0.000 -0.003  0.374    0.034 -0.201 -0.005    0.012 -0.061 -0.001
 H         -0.245 -0.080  0.031   -0.250  0.200  0.245   -0.076  0.052  0.069
 H          0.044 -0.197  0.101    0.076  0.241 -0.092    0.399  0.069  0.072
 H         -0.362  0.154  0.131    0.324 -0.150 -0.198   -0.195  0.049 -0.166
 H          0.050  0.356  0.047   -0.045 -0.269  0.038    0.020  0.355  0.297
 H         -0.001 -0.000  0.011   -0.029 -0.003 -0.000   -0.054 -0.001 -0.000
 H          0.001  0.001  0.001    0.042  0.031 -0.000    0.049  0.053 -0.000
 H          0.000  0.001  0.001    0.003  0.065 -0.000    0.001  0.147 -0.000
 H         -0.001  0.001 -0.001   -0.052  0.040  0.000   -0.130  0.096 -0.000
 TransDip  -0.000 -0.000  0.078    0.000 -0.010 -0.001   -0.016  0.114 -0.000

 Mode:                46                     47                     48
 Frequency:      1434.16                1440.49                1485.05
 Force Cnst:      2.2169                 1.2815                 2.9584
 Red. Mass:       1.8294                 1.0482                 2.2768
 IR Active:          YES                    YES                    YES
 IR Intens:        8.798                  7.956                  9.373
 Raman Active:       YES                    YES                    YES
               X      Y      Z        X      Y      Z        X      Y      Z
 C          0.013  0.012 -0.002   -0.023  0.000 -0.011   -0.002 -0.002 -0.000
 Si         0.005  0.006  0.000   -0.009  0.002  0.000   -0.010 -0.000  0.000
 C         -0.009  0.001  0.000   -0.041  0.017  0.000   -0.001  0.001 -0.000
 C          0.013  0.012  0.002   -0.023  0.000  0.011   -0.002 -0.002  0.000
 C         -0.043 -0.091 -0.000   -0.003 -0.002 -0.000    0.142 -0.084  0.000
 C         -0.007  0.093  0.000    0.005  0.006  0.000   -0.146 -0.072 -0.000
 N          0.078  0.016  0.000    0.006 -0.003  0.000   -0.047  0.112 -0.000
 C         -0.118  0.034  0.000   -0.002  0.006  0.000   -0.140 -0.105 -0.000
 C         -0.024 -0.129  0.000   -0.003 -0.006 -0.000    0.091  0.016  0.000
 C          0.121 -0.024  0.000    0.002 -0.003  0.000    0.001  0.068 -0.000
 H          0.012  0.013 -0.136    0.204 -0.105  0.211   -0.003 -0.002  0.025
 H          0.002 -0.097  0.157   -0.030 -0.120 -0.116   -0.001  0.011 -0.022
 H         -0.210 -0.095  0.011    0.166  0.218  0.058    0.029  0.016 -0.000
 H          0.071 -0.046  0.060    0.312 -0.254  0.307    0.021 -0.015  0.019
 H         -0.009  0.072 -0.001   -0.041  0.266 -0.000   -0.002  0.028  0.000
 H          0.072 -0.045 -0.060    0.312 -0.254 -0.307    0.021 -0.015 -0.018
 H         -0.211 -0.095 -0.011    0.166  0.218 -0.058    0.029  0.016  0.000
 H          0.012  0.013  0.137    0.204 -0.105 -0.211   -0.003 -0.002 -0.025
 H          0.002 -0.098 -0.157   -0.030 -0.120  0.116   -0.001  0.011  0.022
 H         -0.180  0.011 -0.000   -0.021 -0.008 -0.000    0.486  0.291  0.000
 H          0.230  0.213 -0.000   -0.021 -0.003  0.000    0.625  0.258 -0.000
 H          0.017  0.530 -0.000   -0.003  0.018 -0.000    0.117  0.073  0.000
 H         -0.411  0.325 -0.000   -0.025  0.014  0.000    0.274 -0.086 -0.000
 TransDip  -0.079  0.052 -0.000    0.090 -0.007 -0.000    0.094 -0.028  0.000

 Mode:                49                     50                     51
 Frequency:      1610.00                1631.94                3011.70
 Force Cnst:      9.1902                 9.5377                 5.5322
 Red. Mass:       6.0176                 6.0784                 1.0352
 IR Active:          YES                    YES                    YES
 IR Intens:       15.768                 22.711                  6.999
 Raman Active:       YES                    YES                    YES
               X      Y      Z        X      Y      Z        X      Y      Z
 C         -0.000  0.000  0.000    0.001 -0.000 -0.000   -0.012  0.018  0.028
 Si         0.001  0.004 -0.000   -0.008 -0.001 -0.000    0.000 -0.001 -0.000
 C          0.003 -0.001  0.000    0.001  0.001  0.000   -0.001 -0.003  0.000
 C         -0.000  0.000 -0.000    0.001 -0.000  0.000   -0.012  0.018 -0.027
 C         -0.015 -0.260  0.000    0.156  0.023 -0.000    0.000  0.000  0.000
 C          0.085  0.190 -0.000   -0.340 -0.092  0.000    0.000 -0.001 -0.000
 N         -0.097  0.137 -0.000   -0.197  0.031 -0.000   -0.000  0.000 -0.000
 C         -0.019 -0.181 -0.000    0.304  0.114  0.000   -0.000  0.000 -0.000
 C         -0.022  0.423 -0.000   -0.174 -0.038 -0.000   -0.000  0.000  0.000
 C          0.137 -0.283  0.000    0.346 -0.090  0.000   -0.000 -0.000 -0.000
 H          0.006 -0.003 -0.012    0.000  0.000  0.008   -0.169 -0.376 -0.007
 H         -0.001 -0.006  0.007    0.000 -0.002 -0.012    0.420 -0.034  0.004
 H         -0.009 -0.003  0.001    0.008  0.004  0.000   -0.113  0.197 -0.318
 H          0.006 -0.005  0.003   -0.001 -0.002  0.001   -0.012  0.017  0.027
 H          0.003  0.025 -0.000    0.000  0.004 -0.000    0.039  0.001  0.000
 H          0.006 -0.005 -0.003   -0.001 -0.002 -0.001   -0.012  0.017 -0.027
 H         -0.008 -0.003 -0.001    0.008  0.004 -0.000   -0.112  0.196  0.316
 H          0.006 -0.003  0.012    0.000  0.000 -0.008   -0.168 -0.373  0.007
 H         -0.001 -0.006 -0.007    0.000 -0.002  0.012    0.417 -0.033 -0.004
 H         -0.380 -0.069 -0.000    0.257  0.274 -0.000   -0.004  0.008  0.000
 H          0.143 -0.123  0.000   -0.347 -0.172 -0.000    0.000 -0.001 -0.000
 H         -0.094 -0.470 -0.000   -0.189  0.136  0.000   -0.000 -0.000  0.000
 H         -0.365  0.004  0.000   -0.297  0.335 -0.000    0.000  0.000  0.000
 TransDip   0.026 -0.124 -0.000    0.151  0.025 -0.000   -0.061  0.059  0.000

 Mode:                52                     53                     54
 Frequency:      3012.43                3019.41                3100.51
 Force Cnst:      5.5355                 5.5652                 6.2337
 Red. Mass:       1.0353                 1.0361                 1.1006
 IR Active:          YES                    YES                    YES
 IR Intens:        6.962                  6.373                  0.343
 Raman Active:       YES                    YES                    YES
               X      Y      Z        X      Y      Z        X      Y      Z
 C          0.012 -0.018 -0.028    0.001 -0.001 -0.002   -0.052 -0.041  0.005
 Si         0.000 -0.000  0.001    0.000  0.001 -0.000   -0.000 -0.000  0.000
 C         -0.000 -0.000 -0.000   -0.022 -0.045 -0.000   -0.000  0.000  0.001
 C         -0.012  0.018 -0.028    0.001 -0.001  0.002    0.050  0.039  0.004
 C          0.000  0.000 -0.000    0.000 -0.000  0.000    0.000 -0.000 -0.000
 C          0.000 -0.000  0.000   -0.000  0.000  0.000   -0.000  0.000  0.000
 N         -0.000 -0.000 -0.000    0.000  0.000 -0.000    0.000 -0.000  0.000
 C          0.000 -0.000  0.000   -0.000  0.000 -0.000    0.000 -0.000  0.000
 C         -0.000  0.000  0.000   -0.000  0.000  0.000    0.000  0.000 -0.000
 C         -0.000 -0.000  0.000    0.000 -0.000 -0.000   -0.000 -0.000  0.000
 H          0.169  0.376  0.007    0.011  0.023 -0.000    0.212  0.505  0.023
 H         -0.417  0.033 -0.005   -0.026  0.002 -0.000    0.452 -0.053 -0.004
 H          0.112 -0.197  0.315    0.007 -0.012  0.018   -0.037  0.037 -0.076
 H         -0.001  0.000  0.001   -0.190  0.254  0.438    0.003 -0.005 -0.007
 H          0.000  0.000 -0.000    0.639  0.013 -0.000    0.000  0.000  0.001
 H          0.000  0.000  0.000   -0.190  0.254 -0.438   -0.003  0.005 -0.007
 H         -0.113  0.198  0.318    0.007 -0.012 -0.019    0.035 -0.035 -0.072
 H         -0.170 -0.378  0.007    0.011  0.024  0.000   -0.203 -0.484  0.022
 H          0.420 -0.033 -0.005   -0.027  0.002  0.001   -0.434  0.051 -0.004
 H         -0.000  0.000  0.000   -0.000  0.000  0.000    0.000 -0.001 -0.000
 H         -0.000  0.000  0.000   -0.000  0.000 -0.000   -0.000  0.000 -0.000
 H          0.000 -0.000 -0.000    0.000  0.000  0.000   -0.000  0.000 -0.000
 H          0.000  0.000 -0.000    0.000  0.000 -0.000    0.000  0.000  0.000
 TransDip  -0.000  0.000 -0.085   -0.055 -0.059  0.000   -0.003 -0.002  0.018

 Mode:                55                     56                     57
 Frequency:      3100.79                3104.98                3105.14
 Force Cnst:      6.2329                 6.2524                 6.2532
 Red. Mass:       1.1003                 1.1007                 1.1007
 IR Active:          YES                    YES                    YES
 IR Intens:       24.328                 12.290                  5.892
 Raman Active:       YES                    YES                    YES
               X      Y      Z        X      Y      Z        X      Y      Z
 C         -0.050 -0.039  0.005    0.035 -0.039  0.037   -0.035  0.040 -0.038
 Si        -0.001 -0.001 -0.000    0.000 -0.001 -0.000   -0.000  0.000 -0.001
 C          0.000  0.000 -0.000    0.000  0.000 -0.000    0.000 -0.000  0.000
 C         -0.052 -0.041 -0.005    0.035 -0.040 -0.039    0.034 -0.039 -0.037
 C          0.000 -0.000  0.000   -0.000  0.000  0.000    0.000  0.000 -0.000
 C         -0.002  0.004 -0.000   -0.001  0.001  0.000    0.000 -0.000 -0.000
 N          0.000 -0.000 -0.000   -0.000  0.000  0.000    0.000 -0.000  0.000
 C         -0.000  0.000 -0.000    0.000 -0.000 -0.000    0.000 -0.000  0.000
 C          0.000  0.000  0.000    0.000  0.000  0.000   -0.000  0.000  0.000
 C         -0.000 -0.001  0.000   -0.000 -0.000 -0.000    0.000  0.000 -0.000
 H          0.203  0.485  0.024    0.083  0.168  0.016   -0.086 -0.175 -0.016
 H          0.431 -0.051 -0.006   -0.344  0.025  0.013    0.351 -0.026 -0.012
 H         -0.035  0.036 -0.074   -0.155  0.276 -0.478    0.159 -0.283  0.491
 H         -0.000  0.001  0.000    0.000  0.000 -0.002    0.001  0.000 -0.001
 H         -0.002  0.001 -0.000   -0.001 -0.001 -0.000   -0.001 -0.000  0.000
 H         -0.000  0.000 -0.000    0.000  0.000  0.002   -0.001  0.000 -0.002
 H         -0.036  0.037  0.077   -0.159  0.283  0.491   -0.154  0.276  0.478
 H          0.212  0.506 -0.025    0.086  0.173 -0.017    0.084  0.171 -0.016
 H          0.450 -0.053  0.006   -0.352  0.026 -0.013   -0.341  0.025 -0.012
 H          0.026 -0.045  0.000    0.010 -0.017 -0.000   -0.000  0.000 -0.000
 H          0.002 -0.004  0.000   -0.000  0.001 -0.000   -0.000  0.001  0.000
 H         -0.000  0.000  0.000   -0.000  0.000  0.000    0.000 -0.000  0.000
 H          0.005  0.009  0.000    0.002  0.003 -0.000   -0.000 -0.000 -0.000
 TransDip  -0.136 -0.080 -0.000    0.077 -0.082 -0.001   -0.001  0.001 -0.078

 Mode:                58                     59                     60
 Frequency:      3109.38                3112.71                3113.90
 Force Cnst:      6.2730                 6.2758                 6.2202
 Red. Mass:       1.1012                 1.0994                 1.0888
 IR Active:          YES                    YES                    YES
 IR Intens:       11.293                  6.702                 27.595
 Raman Active:       YES                    YES                    YES
               X      Y      Z        X      Y      Z        X      Y      Z
 C         -0.000 -0.000 -0.000   -0.001 -0.000  0.000   -0.000 -0.000  0.000
 Si        -0.001  0.000  0.000   -0.000  0.000 -0.001   -0.000  0.000  0.000
 C         -0.086  0.034  0.000   -0.000  0.000 -0.091   -0.004  0.002  0.000
 C          0.000 -0.000  0.000    0.001  0.000  0.000   -0.000 -0.000 -0.000
 C          0.000  0.000 -0.000    0.000  0.000  0.000   -0.001  0.001 -0.000
 C          0.000 -0.000 -0.000    0.000 -0.000 -0.000    0.003 -0.004  0.000
 N         -0.000 -0.000  0.000    0.000 -0.000  0.000    0.001 -0.000 -0.000
 C         -0.002  0.004  0.000    0.000 -0.000  0.000    0.034 -0.077  0.000
 C          0.000 -0.000 -0.000   -0.000  0.000 -0.000   -0.012  0.004 -0.000
 C         -0.000  0.000  0.000   -0.000  0.000 -0.000    0.002  0.003 -0.000
 H          0.000  0.000  0.000    0.003  0.006  0.001    0.001  0.004  0.000
 H          0.001 -0.001 -0.001    0.007 -0.001 -0.000    0.003 -0.001 -0.000
 H         -0.000  0.000  0.001   -0.000  0.001  0.000   -0.001  0.001 -0.002
 H          0.138 -0.223 -0.372   -0.241  0.355  0.557    0.007 -0.012 -0.019
 H          0.759  0.040  0.000    0.002  0.000 -0.017    0.039  0.002  0.000
 H          0.137 -0.221  0.370    0.241 -0.356  0.558    0.007 -0.011  0.019
 H         -0.000  0.001  0.000    0.000 -0.001  0.000   -0.000  0.001  0.001
 H          0.001  0.001 -0.000   -0.003 -0.006  0.001    0.001  0.004 -0.000
 H          0.001 -0.001  0.001   -0.007  0.001 -0.000    0.004 -0.001  0.000
 H         -0.001  0.002  0.000   -0.000  0.000 -0.000   -0.030  0.050 -0.000
 H          0.023 -0.046  0.000   -0.000  0.000  0.000   -0.428  0.879 -0.000
 H         -0.006  0.001 -0.000    0.000 -0.000 -0.000    0.169 -0.017  0.000
 H          0.000  0.000  0.000   -0.000 -0.000 -0.000   -0.024 -0.039 -0.000
 TransDip  -0.104  0.026  0.000   -0.000 -0.000 -0.083    0.114 -0.124  0.000

 Mode:                61                     62                     63
 Frequency:      3133.56                3153.57                3169.89
 Force Cnst:      6.2910                 6.3981                 6.5017
 Red. Mass:       1.0874                 1.0919                 1.0982
 IR Active:          YES                    YES                    YES
 IR Intens:        4.851                 16.397                 18.432
 Raman Active:       YES                    YES                    YES
               X      Y      Z        X      Y      Z        X      Y      Z
 C         -0.002 -0.003  0.001   -0.000 -0.001  0.000   -0.000 -0.000  0.000
 Si        -0.000 -0.000  0.000    0.000 -0.000 -0.000    0.000 -0.000  0.000
 C          0.000 -0.000  0.000   -0.000  0.000  0.000    0.000 -0.000  0.000
 C         -0.002 -0.003 -0.001   -0.000 -0.001 -0.000   -0.000 -0.000 -0.000
 C          0.002  0.001 -0.000    0.001  0.001 -0.000    0.001  0.001 -0.000
 C          0.039 -0.068  0.000    0.019 -0.029  0.000    0.008 -0.010 -0.000
 N         -0.000  0.000  0.000   -0.000  0.000 -0.000    0.000 -0.000 -0.000
 C         -0.003  0.007 -0.000    0.003 -0.009  0.000   -0.003  0.013 -0.000
 C         -0.007 -0.000 -0.000    0.043 -0.000  0.000   -0.075  0.007  0.000
 C          0.015  0.028  0.000   -0.038 -0.055 -0.000   -0.023 -0.041 -0.000
 H          0.013  0.032  0.002    0.003  0.008  0.000    0.001  0.001 -0.000
 H          0.012 -0.001  0.000    0.003 -0.000  0.000   -0.000  0.000  0.000
 H         -0.004  0.006 -0.011   -0.001  0.001 -0.002    0.000 -0.000 -0.000
 H         -0.001  0.001  0.002    0.000 -0.000 -0.001   -0.000  0.000  0.000
 H         -0.005 -0.001  0.000    0.000 -0.000 -0.000   -0.002 -0.000  0.000
 H         -0.001  0.002 -0.002    0.000 -0.000  0.001   -0.000  0.000 -0.001
 H         -0.004  0.006  0.011   -0.001  0.001  0.002    0.000 -0.000  0.000
 H          0.013  0.032 -0.002    0.003  0.008 -0.000    0.001  0.001  0.000
 H          0.012 -0.001 -0.000    0.003 -0.000 -0.000   -0.000  0.000 -0.000
 H         -0.452  0.787 -0.000   -0.190  0.327 -0.000   -0.065  0.108  0.000
 H          0.038 -0.078 -0.000   -0.042  0.089 -0.000    0.051 -0.115 -0.000
 H          0.084 -0.005  0.000   -0.507  0.032 -0.000    0.836 -0.060  0.000
 H         -0.205 -0.330 -0.000    0.410  0.643 -0.000    0.269  0.431 -0.000
 TransDip   0.060 -0.036 -0.000    0.023 -0.128  0.000   -0.134 -0.030 -0.000

 STANDARD THERMODYNAMIC QUANTITIES AT   298.15 K  AND     1.00 ATM

   This Molecule has  0 Imaginary Frequencies
   Zero point vibrational energy:      117.439 kcal/mol

   Atom    1 Element C  Has Mass   12.00000
   Atom    2 Element Si Has Mass   27.97693
   Atom    3 Element C  Has Mass   12.00000
   Atom    4 Element C  Has Mass   12.00000
   Atom    5 Element C  Has Mass   12.00000
   Atom    6 Element C  Has Mass   12.00000
   Atom    7 Element N  Has Mass   14.00307
   Atom    8 Element C  Has Mass   12.00000
   Atom    9 Element C  Has Mass   12.00000
   Atom   10 Element C  Has Mass   12.00000
   Atom   11 Element H  Has Mass    1.00783
   Atom   12 Element H  Has Mass    1.00783
   Atom   13 Element H  Has Mass    1.00783
   Atom   14 Element H  Has Mass    1.00783
   Atom   15 Element H  Has Mass    1.00783
   Atom   16 Element H  Has Mass    1.00783
   Atom   17 Element H  Has Mass    1.00783
   Atom   18 Element H  Has Mass    1.00783
   Atom   19 Element H  Has Mass    1.00783
   Atom   20 Element H  Has Mass    1.00783
   Atom   21 Element H  Has Mass    1.00783
   Atom   22 Element H  Has Mass    1.00783
   Atom   23 Element H  Has Mass    1.00783
   Molecular Mass:   151.081790 amu
   Principal axes and moments of inertia in amu*Bohr^2:
                             1           2           3
    Eigenvalues --      878.58666  2413.75203  2723.82495
          X               1.00000     0.00185     0.00000
          Y              -0.00185     1.00000    -0.00000
          Z              -0.00000     0.00000     1.00000
   Rotational Symmetry Number is   1
   The Molecule is an Asymmetric Top
   Translational Enthalpy:        0.889 kcal/mol
   Rotational Enthalpy:           0.889 kcal/mol
   Vibrational Enthalpy:        123.551 kcal/mol
   gas constant (RT):             0.592 kcal/mol
   Translational Entropy:        40.948  cal/mol.K
   Rotational Entropy:           30.136  cal/mol.K
   Vibrational Entropy:          41.206  cal/mol.K

   Total Enthalpy:              125.921 kcal/mol
   Total Entropy:               112.290  cal/mol.K
Archival summary:
1\1\mm2.localdomain\FREQ\ProcedureUnspecified\6-311+G**\i11813\xuedong\SatJun2000:09:002020SatJun2000:09:002020\0\\#,FREQ,ProcedureUnspecified,6-311+G**,\\0,1\Si\C,1,1.86598\H,2,1.09391,1,110.811\H,2,1.09391,1,110.811,3,118.8,0\H,2,1.09682,1,111.149,3,-120.6,0\C,1,1.87833,2,111.235,3,59.6431,0\H,6,1.09477,1,110.88,2,-55.2701,0\H,6,1.09634,1,111.174,2,-174.966,0\H,6,1.09692,1,111.333,2,64.9505,0\C,1,1.87833,2,111.235,3,-178.445,0\H,10,1.09477,1,110.879,2,55.2717,0\H,10,1.09634,1,111.174,2,174.968,0\H,10,1.09692,1,111.333,2,-64.9489,0\C,1,1.89978,2,109.281,3,-59.4013,0\N,14,1.34427,1,117.507,2,-0.00313648,0\C,15,1.32954,14,118.287,1,-179.999,0\H,16,1.0901,15,116.464,14,180,0\C,16,1.38797,15,123.825,14,-0,0\H,18,1.08697,16,120.294,15,180,0\C,18,1.38601,16,118.251,15,-0,0\H,20,1.0863,18,120.526,16,-180,0\C,20,1.38508,18,118.457,16,0,0\H,22,1.08844,20,120.485,18,180,0\\\@

 Total job time:  11633.05s(wall), 32528.99s(cpu) 
 Sat Jun 20 00:09:00 2020

        *************************************************************
        *                                                           *
        *  Thank you very much for using Q-Chem.  Have a nice day.  *
        *                                                           *
        *************************************************************


