
Running Job 1 of 2 16.freq.M06.qcinp
qchem 16.freq.M06.qcinp_13295.0 /scratch/xuedong/qchem13295/ 1
/home/qwang/software/qchem5.1/exe/qcprog.exe_s 16.freq.M06.qcinp_13295.0 /scratch/xuedong/qchem13295/
Check license passed

                  Welcome to Q-Chem
     A Quantum Leap Into The Future Of Chemistry


 Q-Chem 5.1, Q-Chem, Inc., Pleasanton, CA (2018)

 Yihan Shao,  Zhengting Gan,  E. Epifanovsky,  A. T. B. Gilbert,  M. Wormit,  
 J. Kussmann,  A. W. Lange,  A. Behn,  Jia Deng,  Xintian Feng,  D. Ghosh,  
 M. Goldey,  P. R. Horn,  L. D. Jacobson,  I. Kaliman,  T. Kus,  A. Landau,  
 Jie Liu,  E. I. Proynov,  R. M. Richard,  R. P. Steele,  E. J. Sundstrom,  
 H. L. Woodcock III,  P. M. Zimmerman,  D. Zuev,  B. Albrecht,  E. Alguire,  
 S. A. Baeppler,  D. Barton,  Z. Benda,  Y. A. Bernard,  E. J. Berquist,  
 K. B. Bravaya,  H. Burton,  D. Casanova,  Chun-Min Chang,  Yunqing Chen,  
 A. Chien,  K. D. Closser,  M. P. Coons,  S. Coriani,  S. Dasgupta,  
 A. L. Dempwolff,  M. Diedenhofen,  Hainam Do,  R. G. Edgar,  Po-Tung Fang,  
 S. Faraji,  S. Fatehi,  Qingguo Feng,  K. D. Fenk,  J. Fosso-Tande,  
 Qinghui Ge,  A. Ghysels,  G. Gidofalvi,  J. Gomes,  J. Gonthier,  A. Gunina,  
 D. Hait,  M. W. D. Hanson-Heine,  P. H. P. Harbach,  A. W. Hauser,  
 J. E. Herr,  E. G. Hohenstein,  Z. C. Holden,  Kerwin Hui,  B. C. Huynh,  
 T.-C. Jagau,  Hyunjun Ji,  B. Kaduk,  K. Khistyaev,  Jaehoon Kim,  
 P. Klunzinger,  K. Koh,  D. Kosenkov,  L. Koulias,  T. Kowalczyk,  
 C. M. Krauter,  A. Kunitsa,  Ka Un Lao,  A. Laurent,  K. V. Lawler,  
 Joonho Lee,  D. Lefrancois,  S. Lehtola,  D. S. Levine,  Yi-Pei Li,  
 You-Sheng Lin,  Fenglai Liu,  E. Livshits,  A. Luenser,  P. Manohar,  
 E. Mansoor,  S. F. Manzer,  Shan-Ping Mao,  Yuezhi Mao,  N. Mardirossian,  
 A. V. Marenich,  T. Markovich,  L. A. Martinez-Martinez,  S. A. Maurer,  
 N. J. Mayhall,  S. C. McKenzie,  J.-M. Mewes,  A. F. Morrison,  
 J. W. Mullinax,  K. Nanda,  T. S. Nguyen-Beck,  R. Olivares-Amaya,  
 J. A. Parkhill,  T. M. Perrine,  F. Plasser,  P. Pokhilko,  S. Prager,  
 A. Prociuk,  E. Ramos,  D. R. Rehn,  F. Rob,  M. Schneider,  N. Sergueev,  
 S. M. Sharada,  S. Sharma,  D. W. Small,  T. Stauch,  T. Stein,  
 Yu-Chuan Su,  A. J. W. Thom,  A. Tkatchenko,  T. Tsuchimochi,  N. M. Tubman,  
 L. Vogt,  M. L. Vidal,  O. Vydrov,  M. A. Watson,  J. Wenzel,  
 M. de Wergifosse,  T. A. Wesolowski,  A. White,  J. Witte,  A. Yamada,  
 Jun Yang,  K. Yao,  S. Yeganeh,  S. R. Yost,  Zhi-Qiang You,  A. Zech,  
 Igor Ying Zhang,  Xing Zhang,  Yan Zhao,  Ying Zhu,  B. R. Brooks,  
 G. K. L. Chan,  C. J. Cramer,  M. S. Gordon,  W. J. Hehre,  A. Klamt,  
 M. W. Schmidt,  C. D. Sherrill,  D. G. Truhlar,  A. Aspuru-Guzik,  R. Baer,  
 A. T. Bell,  N. A. Besley,  Jeng-Da Chai,  R. A. DiStasio Jr.,  A. Dreuw,  
 B. D. Dunietz,  T. R. Furlani,  Chao-Ping Hsu,  Yousung Jung,  Jing Kong,  
 D. S. Lambrecht,  WanZhen Liang,  C. Ochsenfeld,  V. A. Rassolov,  
 L. V. Slipchenko,  J. E. Subotnik,  T. Van Voorhis,  J. M. Herbert,  
 A. I. Krylov,  P. M. W. Gill,  M. Head-Gordon

 Contributors to earlier versions of Q-Chem not listed above: 
 R. D. Adamson,  B. Austin,  J. Baker,  G. J. O. Beran,  K. Brandhorst,  
 S. T. Brown,  E. F. C. Byrd,  A. K. Chakraborty,  C.-L. Cheng,  
 Siu Hung Chien,  D. M. Chipman,  D. L. Crittenden,  H. Dachsel,  
 R. J. Doerksen,  A. D. Dutoi,  L. Fusti-Molnar,  W. A. Goddard III,  
 A. Golubeva-Zadorozhnaya,  S. R. Gwaltney,  G. Hawkins,  A. Heyden,  
 S. Hirata,  G. Kedziora,  F. J. Keil,  C. Kelley,  Jihan Kim,  R. A. King,  
 R. Z. Khaliullin,  P. P. Korambath,  W. Kurlancheek,  A. M. Lee,  M. S. Lee,  
 S. V. Levchenko,  Ching Yeh Lin,  D. Liotard,  R. C. Lochan,  I. Lotan,  
 P. E. Maslen,  N. Nair,  D. P. O'Neill,  D. Neuhauser,  E. Neuscamman,  
 C. M. Oana,  R. Olson,  B. Peters,  R. Peverati,  P. A. Pieniazek,  
 Y. M. Rhee,  J. Ritchie,  M. A. Rohrdanz,  E. Rosta,  N. J. Russ,  
 H. F. Schaefer III,  N. E. Schultz,  N. Shenvi,  A. C. Simmonett,  A. Sodt,  
 D. Stuck,  K. S. Thanthiriwatte,  V. Vanovschi,  Tao Wang,  A. Warshel,  
 C. F. Williams,  Q. Wu,  X. Xu,  W. Zhang

 Please cite Q-Chem as follows:
 Y. Shao et al., Mol. Phys. 113, 184-215 (2015)
 DOI: 10.1080/00268976.2014.952696

 Q-Chem 5.1.0 for Intel X86 EM64T Linux

 Parts of Q-Chem use Armadillo 8.300.2 (Tropical Shenanigans).
 http://arma.sourceforge.net/

 Q-Chem begins on Fri Jun 19 17:03:26 2020  

Host: 
0

     Scratch files written to /scratch/xuedong/qchem13295//
 May118 |scratch|qcdevops|jenkins|workspace|build_RNUM 6581   
Processing $rem in /home/qwang/software/qchem5.1/config/preferences.
 MEM_TOTAL  2000 

Checking the input file for inconsistencies... 	...done.

--------------------------------------------------------------
User input:
--------------------------------------------------------------
$molecule
0 1
C        -1.8454531289    0.8817141826    1.5417372476
Si       -1.1966688626   -0.0085878877   -0.0000853128
C        -1.7359833264   -1.8170603459   -0.0000975217
C        -1.8452977483    0.8816977625   -1.5419825079
C         0.6879861376    0.0609452057    0.0000105315
N         2.6931671651   -0.6812717886    0.0000060667
N         1.4039214672   -1.0777112309   -0.0000520091
C         1.5609750923    1.1885223099    0.0001407610
C         2.8383898081    0.6703715303    0.0001583298
H        -1.5192346883    1.9287050046    1.5662039289
H        -2.9422470895    0.8777642037    1.5696165035
H        -1.4860929031    0.4011272112    2.4592060387
H        -1.3522733174   -2.3409686290   -0.8823313992
H        -2.8291547336   -1.9070835451   -0.0003114885
H        -1.3526318763   -2.3408718757    0.8823506956
H        -1.4859033920    0.4010586761   -2.4594107151
H        -1.5190118102    1.9286672478   -1.5664616812
H        -2.9420899653    0.8778151685   -1.5699369716
H         3.4196775612   -1.3818379896   -0.0000377042
H         1.2906280810    2.2353652967    0.0002183700
H         3.8127253151    1.1386705700    0.0002425157
$end

$rem
JOBTYPE  =  opt
METHOD  =  M06
BASIS  =  6-311G+(d,p)
SCF_MAX_CYCLES  =  200
GEOM_OPT_MAX_CYCLES  =  300
GEOM_OPT_TOL_DISPLACEMENT = 10
GEOM_OPT_TOL_ENERGY = 1
GEOM_OPT_TOL_GRADIENT = 1
$end
--------------------------------------------------------------
 ----------------------------------------------------------------
             Standard Nuclear Orientation (Angstroms)
    I     Atom           X                Y                Z
 ----------------------------------------------------------------
    1      C      -1.8541437108     0.8830429992     1.5417748130
    2      Si     -1.2096846313    -0.0104752940    -0.0000011639
    3      C      -1.7576287034    -1.8163518099     0.0001605400
    4      C      -1.8541213111     0.8827691885    -1.5419449342
    5      C       0.6752809160     0.0500574663     0.0000084051
    6      N       2.6768948704    -0.7017261440    -0.0000197557
    7      N       1.3857708058    -1.0920047024     0.0000102945
    8      C       1.5536442908     1.1734530510     0.0000072824
    9      C       2.8285701859     0.6492083098     0.0000135363
   10      H      -1.5229283798     1.9284661684     1.5661402124
   11      H      -2.9509428259     0.8843327634     1.5697012311
   12      H      -1.4970429246     0.4008218608     2.4592683518
   13      H      -1.3764628409    -2.3421598243    -0.8820460072
   14      H      -2.8512175311    -1.9011539209     0.0000007620
   15      H      -1.3767448802    -2.3419144906     0.8826360870
   16      H      -1.4970657233     0.4003430597    -2.4593483827
   17      H      -1.5228406948     1.9281666254    -1.5665253903
   18      H      -2.9509207672     0.8841216816    -1.5698522412
   19      H       3.4000516606    -1.4057535696    -0.0000360988
   20      H       1.2882992149     2.2215750584     0.0000090950
   21      H       3.8051307930     1.1128493980     0.0000170474
 ----------------------------------------------------------------
 Molecular Point Group                 C1    NOp =  1
 Largest Abelian Subgroup              C1    NOp =  1
 Nuclear Repulsion Energy =   522.6915842524 hartrees
 There are       38 alpha and       38 beta electrons
 Requested basis set is 6-311+G(d,p)
 There are 109 shells and 278 basis functions

 Total QAlloc Memory Limit   2000 MB
 Mega-Array Size       188 MB
 MEM_STATIC part       192 MB
 A cutoff of  1.0D-11 yielded   5058 shell pairs
 There are     34090 function pairs (     36324 Cartesian)
 
 -------------------------------------------------------
 OpenMP Integral Computing Module                       
 Release: version 1.0, May 2013, Q-Chem Inc. Pittsburgh 
 -------------------------------------------------------
 Integral Job Info:
 Integral job number is                      11
 Integral operator is                         1
 short-range coefficients                     0
 long-range coefficients              100000000
 Omega coefficients                           0
 if combine SR and LR in K                    0
 Integral screening is                        0
 Integral computing path is                   2
 max size of driver memory is            800000
 size of driver memory is                593474
 size of scratch memory is              4204008
 max col of scratch BK array               1296
 max len of scratch array in speh3          155
 max len of scratch index in speh4           18
 max int batch size is                      520
 min int batch size is                       52
 fixed nKL is                                52
 max L of basis functions is                  2
 order of int derivative is                   0
 number of shells is                        109
 number of basis is                         287
 number of cartesian basis is               287
 number of contracted shell pairs          5058
 number of primitive shell pairs          11704
 maxK2 (contraction) of shell pair           36
 max number of K2 of shell pair               1
 max number of CS2 of shell pair            731
 max number of PS2 of shell pair           1359
 mem total for path MDJ                  551324
 -------------------------------------------------------
 Smallest overlap matrix eigenvalue = 1.30E-05

 Scale SEOQF with 1.000000e-01/1.000000e-01/1.000000e-01

 Standard Electronic Orientation quadrupole field applied
 Nucleus-field energy     =     0.0000000102 hartrees
 Guess from superposition of atomic densities
 Warning:  Energy on first SCF cycle will be non-variational
 SAD guess density has 76.000000 electrons

 -----------------------------------------------------------------------
  General SCF calculation program by
  Eric Jon Sundstrom, Paul Horn, Yuezhi Mao, Dmitri Zuev, Alec White,
  David Stuck, Shaama M.S., Shane Yost, Joonho Lee, David Small,
  Daniel Levine, Susi Lehtola, Hugh Burton, Evgeny Epifanovsky
 -----------------------------------------------------------------------
 Exchange:     0.2700 Hartree-Fock + 1.0000 M06
 Correlation:  1.0000 M06
 Using SG-3 standard quadrature grid
 using 4 threads for integral computing
 -------------------------------------------------------
 OpenMP Integral computing Module                
 Release: version 1.0, May 2013, Q-Chem Inc. Pittsburgh 
 -------------------------------------------------------
 -------------------------------------------------------
 OpenMP BLAS3 based DFT computing Module                
 Release: version 1.0, May 2013, Q-Chem Inc. Pittsburgh 
 -------------------------------------------------------
 A restricted SCF calculation will be
 performed using DIIS
 SCF converges when DIIS error is below 1.0e-08
 ---------------------------------------
  Cycle       Energy         DIIS error
 ---------------------------------------
    1    -636.5306012897      3.73e-02  
    2    -634.4467480698      4.90e-03  
    3    -634.3467224993      5.88e-03  
    4    -634.6860540501      1.10e-03  
    5    -634.6958089673      3.87e-04  
    6    -634.6970895627      7.55e-05  
    7    -634.6971134170      5.96e-05  
    8    -634.6971425212      1.38e-05  
    9    -634.6971440521      5.11e-06  
   10    -634.6971442689      1.58e-06  
   11    -634.6971442882      5.17e-07  
   12    -634.6971442904      1.40e-07  
   13    -634.6971442906      4.14e-08  
   14    -634.6971442906      1.09e-08  
   15    -634.6971442906      4.89e-09  Convergence criterion met
 ---------------------------------------
 SCF time:   CPU 240.06s  wall 61.00s 
 SCF   energy in the final basis set =     -634.6971442906
 Total energy in the final basis set =     -634.6971442906
 
 --------------------------------------------------------------
 
                    Orbital Energies (a.u.)
 --------------------------------------------------------------
 
 Alpha MOs
 -- Occupied --
-66.243 -14.462 -14.407 -10.277 -10.241 -10.233 -10.207 -10.207
-10.203  -5.351  -3.670  -3.670  -3.670  -1.061  -0.829  -0.792
 -0.720  -0.685  -0.683  -0.620  -0.599  -0.559  -0.475  -0.459
 -0.443  -0.436  -0.419  -0.413  -0.411  -0.398  -0.394  -0.386
 -0.332  -0.315  -0.308  -0.298  -0.272  -0.269
 -- Virtual --
 -0.037  -0.028  -0.018  -0.012  -0.003  -0.001   0.001   0.018
  0.024   0.029   0.030   0.031   0.035   0.048   0.057   0.059
  0.063   0.070   0.077   0.080   0.085   0.087   0.091   0.099
  0.113   0.116   0.117   0.127   0.137   0.141   0.146   0.153
  0.155   0.161   0.164   0.169   0.178   0.182   0.185   0.192
  0.198   0.202   0.205   0.209   0.211   0.225   0.239   0.245
  0.253   0.265   0.267   0.280   0.290   0.297   0.309   0.319
  0.321   0.336   0.353   0.387   0.401   0.421   0.444   0.449
  0.455   0.493   0.500   0.506   0.528   0.529   0.533   0.554
  0.561   0.569   0.586   0.588   0.605   0.614   0.621   0.629
  0.644   0.659   0.665   0.669   0.676   0.694   0.702   0.705
  0.719   0.731   0.742   0.756   0.761   0.785   0.803   0.819
  0.843   0.849   0.856   0.870   0.882   0.889   0.912   0.926
  0.942   0.950   0.974   1.017   1.019   1.044   1.048   1.073
  1.094   1.131   1.146   1.164   1.214   1.217   1.239   1.258
  1.322   1.387   1.392   1.455   1.461   1.465   1.469   1.474
  1.489   1.508   1.529   1.563   1.572   1.587   1.587   1.608
  1.614   1.622   1.623   1.638   1.657   1.708   1.710   1.715
  1.750   1.765   1.767   1.787   1.797   1.801   1.806   1.820
  1.869   1.892   1.892   1.958   1.974   2.031   2.062   2.067
  2.074   2.111   2.112   2.145   2.162   2.176   2.192   2.230
  2.236   2.256   2.336   2.347   2.376   2.392   2.413   2.418
  2.425   2.434   2.467   2.474   2.480   2.489   2.513   2.515
  2.540   2.558   2.573   2.612   2.616   2.638   2.640   2.648
  2.669   2.711   2.719   2.751   2.753   2.810   2.849   2.897
  2.916   2.920   2.946   2.996   3.090   3.123   3.253   3.260
  3.297   3.316   3.357   3.462   3.556   3.663   3.671   3.687
  3.705   3.708   3.725   3.806   3.917   3.999   4.091   4.134
  4.562   4.890   5.412   5.875  11.665  11.707  11.717  23.681
 23.901  23.920  23.935  23.948  24.133  35.514  35.537 141.275
 --------------------------------------------------------------
 
          Ground-State Mulliken Net Atomic Charges

     Atom                 Charge (a.u.)
  ----------------------------------------
      1 C                    -0.673584
      2 Si                    0.952982
      3 C                    -0.731344
      4 C                    -0.673574
      5 C                    -0.548743
      6 N                    -0.092743
      7 N                    -0.062768
      8 C                    -0.073838
      9 C                    -0.298485
     10 H                     0.159527
     11 H                     0.169862
     12 H                     0.177271
     13 H                     0.180212
     14 H                     0.170207
     15 H                     0.180212
     16 H                     0.177272
     17 H                     0.159527
     18 H                     0.169860
     19 H                     0.334093
     20 H                     0.163380
     21 H                     0.160675
  ----------------------------------------
  Sum of atomic charges =     0.000000

 -----------------------------------------------------------------
                    Cartesian Multipole Moments
 -----------------------------------------------------------------
    Charge (ESU x 10^10)
                 0.0000
    Dipole Moment (Debye)
         X       1.9358      Y       0.7997      Z      -0.0000
       Tot       2.0945
    Quadrupole Moments (Debye-Ang)
        XX     -49.6779     XY      -1.0786     YY     -63.4587
        XZ      -0.0001     YZ       0.0001     ZZ     -66.1960
    Octopole Moments (Debye-Ang^2)
       XXX      63.5177    XXY     -12.1393    XYY      12.5317
       YYY       5.8030    XXZ      -0.0006    XYZ       0.0005
       YYZ      -0.0013    XZZ       0.4656    YZZ      -6.3218
       ZZZ       0.0012
    Hexadecapole Moments (Debye-Ang^3)
      XXXX   -1153.6375   XXXY     -46.2497   XXYY    -293.1583
      XYYY     -14.3682   YYYY    -489.8703   XXXZ      -0.0001
      XXYZ       0.0014   XYYZ       0.0008   YYYZ       0.0006
      XXZZ    -316.0135   XYZZ       1.2022   YYZZ    -144.5102
      XZZZ      -0.0022   YZZZ      -0.0004   ZZZZ    -346.1602
 -----------------------------------------------------------------
 Calculating analytic gradient of the SCF energy
 Gradient of SCF Energy
            1           2           3           4           5           6
    1  -0.0020964   0.0044132  -0.0022500  -0.0020969  -0.0085872   0.0057729
    2   0.0023403   0.0006380  -0.0041895   0.0023400   0.0036339  -0.0029385
    3   0.0032623  -0.0000005   0.0000004  -0.0032623  -0.0000012  -0.0000052
            7           8           9          10          11          12
    1  -0.0018699  -0.0022416   0.0080123  -0.0007120   0.0000360  -0.0001354
    2  -0.0107449   0.0070283   0.0050432   0.0001905   0.0002670  -0.0000406
    3   0.0000049  -0.0000016   0.0000045   0.0004818   0.0005804   0.0013081
           13          14          15          16          17          18
    1  -0.0001190   0.0000329  -0.0001200  -0.0001352  -0.0007118   0.0000360
    2  -0.0007472  -0.0007709  -0.0007462  -0.0000413   0.0001906   0.0002671
    3  -0.0007216   0.0000002   0.0007215  -0.0013083  -0.0004818  -0.0005806
           19          20          21
    1   0.0008785   0.0010422   0.0008513
    2  -0.0008436  -0.0004400  -0.0004360
    3  -0.0000010  -0.0000004   0.0000004
 Max gradient component =       1.074E-02
 RMS gradient           =       2.782E-03
 Gradient time:  CPU 60.80 s  wall 35.77 s
 Geometry Optimization Parameters
   NAtoms,    NIC,     NZ,  NCons,   NDum,   NFix, NCnnct, MaxDiis
       21     149       0       0       0       0       0       0


** GEOMETRY OPTIMIZATION IN DELOCALIZED INTERNAL COORDINATES **
   Searching for a Minimum

   Optimization Cycle:   1

                       Coordinates (Angstroms)
     ATOM                X               Y               Z
      1  C        -1.8541437108    0.8830429992    1.5417748130
      2  Si       -1.2096846313   -0.0104752940   -0.0000011639
      3  C        -1.7576287034   -1.8163518099    0.0001605400
      4  C        -1.8541213111    0.8827691885   -1.5419449342
      5  C         0.6752809160    0.0500574663    0.0000084051
      6  N         2.6768948704   -0.7017261440   -0.0000197557
      7  N         1.3857708058   -1.0920047024    0.0000102945
      8  C         1.5536442908    1.1734530510    0.0000072824
      9  C         2.8285701859    0.6492083098    0.0000135363
     10  H        -1.5229283798    1.9284661684    1.5661402124
     11  H        -2.9509428259    0.8843327634    1.5697012311
     12  H        -1.4970429246    0.4008218608    2.4592683518
     13  H        -1.3764628409   -2.3421598243   -0.8820460072
     14  H        -2.8512175311   -1.9011539209    0.0000007620
     15  H        -1.3767448802   -2.3419144906    0.8826360870
     16  H        -1.4970657233    0.4003430597   -2.4593483827
     17  H        -1.5228406948    1.9281666254   -1.5665253903
     18  H        -2.9509207672    0.8841216816   -1.5698522412
     19  H         3.4000516606   -1.4057535696   -0.0000360988
     20  H         1.2882992149    2.2215750584    0.0000090950
     21  H         3.8051307930    1.1128493980    0.0000170474
   Point Group: c1    Number of degrees of freedom:    57


   Energy is   -634.697144291


 Attempting to Generate Delocalized Internal Coordinates

 57 Hessian modes will be used to form the next step
  Hessian Eigenvalues:
     0.002000    0.002000    0.002769    0.002933    0.011260    0.019268
     0.020127    0.021531    0.022010    0.023684    0.045107    0.052803
     0.053517    0.053517    0.053688    0.053688    0.054080    0.054427
     0.054825    0.149180    0.151719    0.160000    0.160000    0.160000
     0.160000    0.160000    0.160000    0.160000    0.160000    0.160000
     0.160000    0.160000    0.160000    0.198673    0.198673    0.202978
     0.203677    0.221865    0.240367    0.250000    0.339987    0.339987
     0.340264    0.340264    0.340304    0.340957    0.340957    0.341882
     0.341883    0.358512    0.358697    0.389646    0.460221    0.460963
     0.497110    0.533534    0.549901

 Minimum Search - Taking Simple RFO Step
 Searching for Lamda that Minimizes Along All modes
 Value Taken    Lamda =  -0.00168267
 Step Taken.  Stepsize is  0.117077

                             Maximum     Tolerance    Cnvgd?
         Gradient           0.011829      0.000001      NO
         Displacement       0.049099      0.000010      NO
         Energy change     *********      0.000000      NO


 New Cartesian Coordinates Obtained by Inverse Iteration

 Displacement from previous Coordinates is:  0.269807
 ----------------------------------------------------------------
             Standard Nuclear Orientation (Angstroms)
    I     Atom           X                Y                Z
 ----------------------------------------------------------------
    1      C      -1.8333989574     0.8748826140     1.5267411509
    2      Si     -1.2094452342    -0.0207142370    -0.0000022195
    3      C      -1.7576320940    -1.8078753677     0.0001508610
    4      C      -1.8333871186     0.8746198538    -1.5269043965
    5      C       0.6655468123     0.0401099381     0.0000025443
    6      N       2.6575614981    -0.6916204998     0.0000279502
    7      N       1.3769520724    -1.0900449959    -0.0000097019
    8      C       1.5236136877     1.1661724492    -0.0000028046
    9      C       2.7947338354     0.6546944590    -0.0000181973
   10      H      -1.4718280738     1.9102236950     1.5518723772
   11      H      -2.9300569956     0.9015256115     1.5478730876
   12      H      -1.4881244692     0.3793161193     2.4396669942
   13      H      -1.3762058338    -2.3319429789    -0.8812558819
   14      H      -2.8518100495    -1.8841910497     0.0000170012
   15      H      -1.3764367904    -2.3317256316     0.8817892648
   16      H      -1.4881617362     0.3788611059    -2.4397436755
   17      H      -1.4717592929     1.9099356526    -1.5522429256
   18      H      -2.9300441589     0.9013190681    -1.5480154204
   19      H       3.3860773460    -1.3880917419     0.0000573013
   20      H       1.2416001970     2.2109647345    -0.0000031560
   21      H       3.7641031687     1.1312490763    -0.0000264695
 ----------------------------------------------------------------
 Molecular Point Group                 C1    NOp =  1
 Largest Abelian Subgroup              C1    NOp =  1
 Nuclear Repulsion Energy =   526.3664526172 hartrees
 There are       38 alpha and       38 beta electrons
 Applying Cartesian multipole field
    Component          Value
    ---------          -----
     (2,0,0)        1.00000E-11
     (0,2,0)        2.00000E-11
     (0,0,2)       -3.00000E-11
 Nucleus-field energy     =     0.0000000101 hartrees
 Requested basis set is 6-311+G(d,p)
 There are 109 shells and 278 basis functions
 A cutoff of  1.0D-11 yielded   5073 shell pairs
 There are     34158 function pairs (     36392 Cartesian)
 Smallest overlap matrix eigenvalue = 1.22E-05
 Guess MOs from SCF MO coefficient file
 Reading MOs from coefficient file
 Reading MOs from coefficient file

 -----------------------------------------------------------------------
  General SCF calculation program by
  Eric Jon Sundstrom, Paul Horn, Yuezhi Mao, Dmitri Zuev, Alec White,
  David Stuck, Shaama M.S., Shane Yost, Joonho Lee, David Small,
  Daniel Levine, Susi Lehtola, Hugh Burton, Evgeny Epifanovsky
 -----------------------------------------------------------------------
 Exchange:     0.2700 Hartree-Fock + 1.0000 M06
 Correlation:  1.0000 M06
 Using SG-3 standard quadrature grid
 using 4 threads for integral computing
 -------------------------------------------------------
 OpenMP Integral computing Module                
 Release: version 1.0, May 2013, Q-Chem Inc. Pittsburgh 
 -------------------------------------------------------
 -------------------------------------------------------
 OpenMP BLAS3 based DFT computing Module                
 Release: version 1.0, May 2013, Q-Chem Inc. Pittsburgh 
 -------------------------------------------------------
 A restricted SCF calculation will be
 performed using DIIS
 SCF converges when DIIS error is below 1.0e-08
 ---------------------------------------
  Cycle       Energy         DIIS error
 ---------------------------------------
    1    -634.7338091469      5.42e-04  
    2    -634.6979318139      8.78e-05  
    3    -634.6979430798      8.79e-05  
    4    -634.6980151223      1.23e-05  
    5    -634.6980161246      5.47e-06  
    6    -634.6980163477      1.61e-06  
    7    -634.6980163631      9.08e-07  
    8    -634.6980163700      2.00e-07  
    9    -634.6980163703      8.00e-08  
   10    -634.6980163704      2.63e-08  
   11    -634.6980163704      1.04e-08  
   12    -634.6980163704      3.37e-09  Convergence criterion met
 ---------------------------------------
 SCF time:   CPU 199.17s  wall 49.00s 
 SCF   energy in the final basis set =     -634.6980163704
 Total energy in the final basis set =     -634.6980163704
 
 --------------------------------------------------------------
 
                    Orbital Energies (a.u.)
 --------------------------------------------------------------
 
 Alpha MOs
 -- Occupied --
-66.237 -14.461 -14.405 -10.275 -10.237 -10.230 -10.205 -10.205
-10.201  -5.346  -3.666  -3.665  -3.665  -1.067  -0.831  -0.794
 -0.722  -0.686  -0.684  -0.621  -0.600  -0.561  -0.475  -0.462
 -0.444  -0.436  -0.421  -0.414  -0.412  -0.398  -0.395  -0.386
 -0.331  -0.315  -0.309  -0.297  -0.272  -0.269
 -- Virtual --
 -0.037  -0.028  -0.018  -0.012  -0.003  -0.001   0.003   0.018
  0.024   0.029   0.031   0.032   0.035   0.048   0.057   0.060
  0.064   0.071   0.078   0.079   0.087   0.088   0.091   0.100
  0.113   0.118   0.119   0.128   0.137   0.141   0.146   0.154
  0.156   0.163   0.165   0.169   0.180   0.183   0.186   0.194
  0.199   0.203   0.206   0.211   0.216   0.225   0.240   0.246
  0.254   0.266   0.269   0.283   0.292   0.298   0.311   0.322
  0.322   0.338   0.354   0.389   0.406   0.424   0.445   0.452
  0.458   0.491   0.500   0.507   0.529   0.530   0.536   0.556
  0.564   0.574   0.586   0.590   0.604   0.616   0.622   0.629
  0.646   0.659   0.668   0.669   0.681   0.697   0.703   0.705
  0.720   0.735   0.744   0.756   0.763   0.787   0.803   0.821
  0.846   0.860   0.863   0.876   0.883   0.894   0.913   0.925
  0.945   0.952   0.976   1.018   1.018   1.049   1.051   1.076
  1.099   1.134   1.150   1.168   1.218   1.224   1.245   1.266
  1.328   1.389   1.393   1.455   1.459   1.463   1.467   1.479
  1.493   1.513   1.534   1.566   1.576   1.588   1.590   1.606
  1.619   1.621   1.626   1.641   1.660   1.713   1.714   1.718
  1.754   1.770   1.775   1.792   1.807   1.810   1.810   1.827
  1.872   1.896   1.900   1.963   1.982   2.034   2.062   2.066
  2.079   2.114   2.117   2.153   2.160   2.177   2.196   2.233
  2.240   2.261   2.343   2.355   2.384   2.397   2.421   2.423
  2.434   2.441   2.471   2.478   2.482   2.493   2.520   2.523
  2.547   2.570   2.579   2.615   2.621   2.641   2.642   2.657
  2.673   2.715   2.731   2.755   2.759   2.819   2.856   2.907
  2.927   2.928   2.963   3.004   3.101   3.136   3.271   3.275
  3.312   3.328   3.374   3.476   3.562   3.664   3.675   3.691
  3.708   3.712   3.730   3.809   3.925   4.005   4.099   4.147
  4.573   4.900   5.434   5.895  11.680  11.722  11.732  23.689
 23.923  23.927  23.941  23.953  24.166  35.525  35.553 141.299
 --------------------------------------------------------------
 
          Ground-State Mulliken Net Atomic Charges

     Atom                 Charge (a.u.)
  ----------------------------------------
      1 C                    -0.667079
      2 Si                    0.938321
      3 C                    -0.722106
      4 C                    -0.667074
      5 C                    -0.564566
      6 N                    -0.084966
      7 N                    -0.069319
      8 C                    -0.048681
      9 C                    -0.307229
     10 H                     0.158390
     11 H                     0.169207
     12 H                     0.176965
     13 H                     0.180070
     14 H                     0.170183
     15 H                     0.180070
     16 H                     0.176965
     17 H                     0.158390
     18 H                     0.169204
     19 H                     0.333079
     20 H                     0.161733
     21 H                     0.158443
  ----------------------------------------
  Sum of atomic charges =     0.000000

 -----------------------------------------------------------------
                    Cartesian Multipole Moments
 -----------------------------------------------------------------
    Charge (ESU x 10^10)
                 0.0000
    Dipole Moment (Debye)
         X       1.9198      Y       0.7888      Z       0.0001
       Tot       2.0755
    Quadrupole Moments (Debye-Ang)
        XX     -49.7800     XY      -1.0145     YY     -63.4759
        XZ       0.0002     YZ      -0.0001     ZZ     -66.1069
    Octopole Moments (Debye-Ang^2)
       XXX      62.8016    XXY     -11.8027    XYY      12.7056
       YYY       6.3152    XXZ       0.0006    XYZ      -0.0005
       YYZ      -0.0008    XZZ       1.0821    YZZ      -6.3710
       ZZZ       0.0016
    Hexadecapole Moments (Debye-Ang^3)
      XXXX   -1135.9353   XXXY     -47.4647   XXYY    -289.6410
      XYYY     -15.4424   YYYY    -486.6140   XXXZ       0.0023
      XXYZ      -0.0015   XYYZ       0.0016   YYYZ       0.0007
      XXZZ    -310.8747   XYZZ       1.1464   YYZZ    -142.9066
      XZZZ      -0.0027   YZZZ       0.0007   ZZZZ    -341.5738
 -----------------------------------------------------------------
 Calculating analytic gradient of the SCF energy
 Gradient of SCF Energy
            1           2           3           4           5           6
    1   0.0000529   0.0012531  -0.0001818   0.0000533   0.0010553  -0.0001876
    2   0.0000477  -0.0001213  -0.0004692   0.0000479   0.0024582   0.0008727
    3   0.0000798   0.0000005  -0.0000004  -0.0000798   0.0000026   0.0000074
            7           8           9          10          11          12
    1  -0.0009189   0.0003133  -0.0011748  -0.0001556  -0.0000477   0.0000122
    2  -0.0023762  -0.0012604   0.0009827   0.0001552  -0.0002298  -0.0000336
    3  -0.0000080   0.0000020  -0.0000062   0.0000815  -0.0001777  -0.0000255
           13          14          15          16          17          18
    1  -0.0000057  -0.0000163  -0.0000059   0.0000122  -0.0001556  -0.0000475
    2   0.0000718   0.0000962   0.0000720  -0.0000336   0.0001552  -0.0002297
    3  -0.0000626  -0.0000001   0.0000631   0.0000256  -0.0000816   0.0001778
           19          20          21
    1  -0.0002538   0.0003596   0.0000393
    2  -0.0001445   0.0001913  -0.0002526
    3   0.0000016   0.0000005  -0.0000005
 Max gradient component =       2.458E-03
 RMS gradient           =       5.769E-04
 Gradient time:  CPU 61.44 s  wall 36.08 s
 Geometry Optimization Parameters
   NAtoms,    NIC,     NZ,  NCons,   NDum,   NFix, NCnnct, MaxDiis
       21     149       0       0       0       0       0       0

 Cartesian Hessian Update
 Hessian Updated using BFGS Update


** GEOMETRY OPTIMIZATION IN DELOCALIZED INTERNAL COORDINATES **
   Searching for a Minimum

   Optimization Cycle:   2

                       Coordinates (Angstroms)
     ATOM                X               Y               Z
      1  C        -1.8333989574    0.8748826140    1.5267411509
      2  Si       -1.2094452342   -0.0207142370   -0.0000022195
      3  C        -1.7576320940   -1.8078753677    0.0001508610
      4  C        -1.8333871186    0.8746198538   -1.5269043965
      5  C         0.6655468123    0.0401099381    0.0000025443
      6  N         2.6575614981   -0.6916204998    0.0000279502
      7  N         1.3769520724   -1.0900449959   -0.0000097019
      8  C         1.5236136877    1.1661724492   -0.0000028046
      9  C         2.7947338354    0.6546944590   -0.0000181973
     10  H        -1.4718280738    1.9102236950    1.5518723772
     11  H        -2.9300569956    0.9015256115    1.5478730876
     12  H        -1.4881244692    0.3793161193    2.4396669942
     13  H        -1.3762058338   -2.3319429789   -0.8812558819
     14  H        -2.8518100495   -1.8841910497    0.0000170012
     15  H        -1.3764367904   -2.3317256316    0.8817892648
     16  H        -1.4881617362    0.3788611059   -2.4397436755
     17  H        -1.4717592929    1.9099356526   -1.5522429256
     18  H        -2.9300441589    0.9013190681   -1.5480154204
     19  H         3.3860773460   -1.3880917419    0.0000573013
     20  H         1.2416001970    2.2109647345   -0.0000031560
     21  H         3.7641031687    1.1312490763   -0.0000264695
   Point Group: c1    Number of degrees of freedom:    57


   Energy is   -634.698016370

 Hessian Updated using BFGS Update

 46 Hessian modes will be used to form the next step
  Hessian Eigenvalues:
     0.001984    0.002769    0.002933    0.011260    0.019268    0.020127
     0.021531    0.022010    0.023684    0.044374    0.052803    0.052815
     0.053517    0.053686    0.053688    0.053846    0.054080    0.054821
     0.149180    0.151250    0.156297    0.161310    0.192247    0.198673
     0.201502    0.206414    0.221536    0.243439    0.253950    0.339986
     0.339987    0.340252    0.340264    0.340304    0.340957    0.341053
     0.341883    0.341917    0.358565    0.358771    0.397867    0.460773
     0.465464    0.497593    0.545457    0.549989

 Minimum Search - Taking Simple RFO Step
 Searching for Lamda that Minimizes Along All modes
 Value Taken    Lamda =  -0.00010297
 Step Taken.  Stepsize is  0.109562

                             Maximum     Tolerance    Cnvgd?
         Gradient           0.001955      0.000001      NO
         Displacement       0.062336      0.000010      NO
         Energy change     -0.000872      0.000000      NO


 New Cartesian Coordinates Obtained by Inverse Iteration

 Displacement from previous Coordinates is:  0.161108
 ----------------------------------------------------------------
             Standard Nuclear Orientation (Angstroms)
    I     Atom           X                Y                Z
 ----------------------------------------------------------------
    1      C      -1.8289657274     0.8726252273     1.5261010684
    2      Si     -1.2135021925    -0.0280578212    -0.0000038221
    3      C      -1.7650793312    -1.8124158099     0.0001598538
    4      C      -1.8289548746     0.8723389690    -1.5262823174
    5      C       0.6629702456     0.0329575038     0.0000074320
    6      N       2.6632607013    -0.6845851357    -0.0000317376
    7      N       1.3849720429    -1.0891553038     0.0000436385
    8      C       1.5142792085     1.1646863865     0.0000154149
    9      C       2.7901926043     0.6622501824     0.0000388828
   10      H      -1.4387718626     1.8971290375     1.5593848469
   11      H      -2.9245129468     0.9297837152     1.5398966423
   12      H      -1.5034181546     0.3635480506     2.4387411997
   13      H      -1.3844915664    -2.3375523623    -0.8808534698
   14      H      -2.8593540031    -1.8871190053     0.0000641459
   15      H      -1.3846579539    -2.3373472585     0.8813692739
   16      H      -1.5034499960     0.3630618231    -2.4388253527
   17      H      -1.4387121008     1.8968167340    -1.5597831445
   18      H      -2.9244998128     0.9295466358    -1.5400680899
   19      H       3.3972825734    -1.3752915066    -0.0000681928
   20      H       1.2221656845     2.2066078523     0.0000166170
   21      H       3.7551452755     1.1478399606     0.0000507950
 ----------------------------------------------------------------
 Molecular Point Group                 C1    NOp =  1
 Largest Abelian Subgroup              C1    NOp =  1
 Nuclear Repulsion Energy =   526.3763548777 hartrees
 There are       38 alpha and       38 beta electrons
 Applying Cartesian multipole field
    Component          Value
    ---------          -----
     (2,0,0)        1.00000E-11
     (0,2,0)        2.00000E-11
     (0,0,2)       -3.00000E-11
 Nucleus-field energy     =     0.0000000101 hartrees
 Requested basis set is 6-311+G(d,p)
 There are 109 shells and 278 basis functions
 A cutoff of  1.0D-11 yielded   5070 shell pairs
 There are     34131 function pairs (     36365 Cartesian)
 Smallest overlap matrix eigenvalue = 1.22E-05
 Guess MOs from SCF MO coefficient file
 Reading MOs from coefficient file
 Reading MOs from coefficient file

 -----------------------------------------------------------------------
  General SCF calculation program by
  Eric Jon Sundstrom, Paul Horn, Yuezhi Mao, Dmitri Zuev, Alec White,
  David Stuck, Shaama M.S., Shane Yost, Joonho Lee, David Small,
  Daniel Levine, Susi Lehtola, Hugh Burton, Evgeny Epifanovsky
 -----------------------------------------------------------------------
 Exchange:     0.2700 Hartree-Fock + 1.0000 M06
 Correlation:  1.0000 M06
 Using SG-3 standard quadrature grid
 using 4 threads for integral computing
 -------------------------------------------------------
 OpenMP Integral computing Module                
 Release: version 1.0, May 2013, Q-Chem Inc. Pittsburgh 
 -------------------------------------------------------
 -------------------------------------------------------
 OpenMP BLAS3 based DFT computing Module                
 Release: version 1.0, May 2013, Q-Chem Inc. Pittsburgh 
 -------------------------------------------------------
 A restricted SCF calculation will be
 performed using DIIS
 SCF converges when DIIS error is below 1.0e-08
 ---------------------------------------
  Cycle       Energy         DIIS error
 ---------------------------------------
    1    -634.6991438221      2.32e-04  
    2    -634.6980748401      2.57e-05  
    3    -634.6980769958      2.86e-05  
    4    -634.6980845011      4.81e-06  
    5    -634.6980846551      2.91e-06  
    6    -634.6980847239      9.90e-07  
    7    -634.6980847317      2.48e-07  
    8    -634.6980847321      6.34e-08  
    9    -634.6980847322      3.02e-08  
   10    -634.6980847322      9.89e-09  Convergence criterion met
 ---------------------------------------
 SCF time:   CPU 164.58s  wall 41.00s 
 SCF   energy in the final basis set =     -634.6980847322
 Total energy in the final basis set =     -634.6980847322
 
 --------------------------------------------------------------
 
                    Orbital Energies (a.u.)
 --------------------------------------------------------------
 
 Alpha MOs
 -- Occupied --
-66.237 -14.461 -14.404 -10.274 -10.237 -10.230 -10.205 -10.205
-10.201  -5.346  -3.666  -3.665  -3.665  -1.067  -0.831  -0.794
 -0.722  -0.686  -0.685  -0.621  -0.600  -0.560  -0.476  -0.462
 -0.444  -0.435  -0.421  -0.414  -0.412  -0.399  -0.395  -0.387
 -0.331  -0.315  -0.309  -0.296  -0.272  -0.269
 -- Virtual --
 -0.037  -0.028  -0.018  -0.012  -0.003  -0.000   0.004   0.018
  0.024   0.029   0.031   0.032   0.035   0.048   0.057   0.060
  0.064   0.071   0.078   0.079   0.087   0.088   0.092   0.100
  0.114   0.117   0.120   0.128   0.138   0.140   0.146   0.154
  0.156   0.163   0.165   0.169   0.179   0.183   0.186   0.194
  0.199   0.203   0.207   0.210   0.216   0.226   0.241   0.245
  0.254   0.265   0.270   0.283   0.292   0.298   0.311   0.322
  0.323   0.338   0.354   0.388   0.405   0.424   0.446   0.452
  0.458   0.490   0.499   0.507   0.529   0.530   0.536   0.556
  0.563   0.574   0.586   0.592   0.603   0.616   0.622   0.629
  0.647   0.659   0.668   0.669   0.680   0.696   0.703   0.703
  0.720   0.736   0.743   0.754   0.763   0.787   0.803   0.821
  0.847   0.861   0.863   0.877   0.883   0.896   0.914   0.925
  0.945   0.953   0.974   1.018   1.018   1.049   1.051   1.075
  1.100   1.134   1.149   1.168   1.216   1.225   1.245   1.266
  1.327   1.390   1.394   1.455   1.459   1.463   1.467   1.480
  1.493   1.512   1.536   1.567   1.576   1.588   1.589   1.606
  1.619   1.620   1.626   1.641   1.659   1.713   1.715   1.718
  1.754   1.770   1.773   1.792   1.807   1.811   1.811   1.826
  1.872   1.896   1.901   1.962   1.982   2.034   2.062   2.066
  2.079   2.115   2.116   2.153   2.160   2.177   2.197   2.234
  2.239   2.260   2.343   2.355   2.384   2.397   2.424   2.424
  2.433   2.441   2.471   2.479   2.482   2.493   2.521   2.523
  2.547   2.570   2.579   2.615   2.620   2.641   2.641   2.658
  2.674   2.716   2.732   2.755   2.760   2.821   2.856   2.907
  2.927   2.929   2.964   3.004   3.100   3.137   3.270   3.276
  3.313   3.328   3.374   3.478   3.563   3.664   3.675   3.691
  3.708   3.713   3.730   3.809   3.926   4.006   4.101   4.147
  4.570   4.901   5.437   5.895  11.681  11.721  11.733  23.690
 23.923  23.927  23.942  23.953  24.163  35.526  35.554 141.299
 --------------------------------------------------------------
 
          Ground-State Mulliken Net Atomic Charges

     Atom                 Charge (a.u.)
  ----------------------------------------
      1 C                    -0.666907
      2 Si                    0.938240
      3 C                    -0.721346
      4 C                    -0.666897
      5 C                    -0.565432
      6 N                    -0.083066
      7 N                    -0.072969
      8 C                    -0.043848
      9 C                    -0.308698
     10 H                     0.157900
     11 H                     0.168983
     12 H                     0.176882
     13 H                     0.180243
     14 H                     0.170440
     15 H                     0.180242
     16 H                     0.176883
     17 H                     0.157901
     18 H                     0.168981
     19 H                     0.333422
     20 H                     0.160826
     21 H                     0.158220
  ----------------------------------------
  Sum of atomic charges =     0.000000

 -----------------------------------------------------------------
                    Cartesian Multipole Moments
 -----------------------------------------------------------------
    Charge (ESU x 10^10)
                 0.0000
    Dipole Moment (Debye)
         X       1.8839      Y       0.7918      Z      -0.0001
       Tot       2.0436
    Quadrupole Moments (Debye-Ang)
        XX     -49.7121     XY      -0.9644     YY     -63.5226
        XZ      -0.0002     YZ       0.0002     ZZ     -66.0959
    Octopole Moments (Debye-Ang^2)
       XXX      63.0239    XXY     -11.5633    XYY      12.5050
       YYY       6.5298    XXZ      -0.0011    XYZ       0.0009
       YYZ      -0.0016    XZZ       1.0337    YZZ      -6.3176
       ZZZ       0.0005
    Hexadecapole Moments (Debye-Ang^3)
      XXXX   -1133.8185   XXXY     -49.5037   XXYY    -289.7439
      XYYY     -16.1374   YYYY    -487.6463   XXXZ      -0.0040
      XXYZ       0.0028   XYYZ      -0.0001   YYYZ       0.0005
      XXZZ    -310.6293   XYZZ       0.7116   YYZZ    -142.8134
      XZZZ      -0.0049   YZZZ      -0.0007   ZZZZ    -341.2989
 -----------------------------------------------------------------
 Calculating analytic gradient of the SCF energy
 Gradient of SCF Energy
            1           2           3           4           5           6
    1   0.0001740   0.0001835   0.0000072   0.0001731  -0.0002483   0.0006448
    2  -0.0000627  -0.0003216  -0.0000038  -0.0000626   0.0015434  -0.0000255
    3  -0.0001382  -0.0000011  -0.0000001   0.0001384  -0.0000066  -0.0000133
            7           8           9          10          11          12
    1  -0.0001688  -0.0001616  -0.0004086  -0.0000690  -0.0000761  -0.0000022
    2   0.0005023  -0.0011597  -0.0003814   0.0000784  -0.0001675  -0.0000131
    3   0.0000153  -0.0000022   0.0000102   0.0000646  -0.0001521  -0.0000881
           13          14          15          16          17          18
    1  -0.0000066  -0.0000328  -0.0000067  -0.0000020  -0.0000690  -0.0000762
    2   0.0000555   0.0001433   0.0000555  -0.0000132   0.0000783  -0.0001673
    3   0.0000518  -0.0000001  -0.0000514   0.0000882  -0.0000646   0.0001519
           19          20          21
    1   0.0000518   0.0000249   0.0000684
    2   0.0000349   0.0000107  -0.0001237
    3  -0.0000028  -0.0000006   0.0000009
 Max gradient component =       1.543E-03
 RMS gradient           =       2.897E-04
 Gradient time:  CPU 61.41 s  wall 36.00 s
 Geometry Optimization Parameters
   NAtoms,    NIC,     NZ,  NCons,   NDum,   NFix, NCnnct, MaxDiis
       21     149       0       0       0       0       0       0

 Cartesian Hessian Update
 Hessian Updated using BFGS Update


** GEOMETRY OPTIMIZATION IN DELOCALIZED INTERNAL COORDINATES **
   Searching for a Minimum

   Optimization Cycle:   3

                       Coordinates (Angstroms)
     ATOM                X               Y               Z
      1  C        -1.8289657274    0.8726252273    1.5261010684
      2  Si       -1.2135021925   -0.0280578212   -0.0000038221
      3  C        -1.7650793312   -1.8124158099    0.0001598538
      4  C        -1.8289548746    0.8723389690   -1.5262823174
      5  C         0.6629702456    0.0329575038    0.0000074320
      6  N         2.6632607013   -0.6845851357   -0.0000317376
      7  N         1.3849720429   -1.0891553038    0.0000436385
      8  C         1.5142792085    1.1646863865    0.0000154149
      9  C         2.7901926043    0.6622501824    0.0000388828
     10  H        -1.4387718626    1.8971290375    1.5593848469
     11  H        -2.9245129468    0.9297837152    1.5398966423
     12  H        -1.5034181546    0.3635480506    2.4387411997
     13  H        -1.3844915664   -2.3375523623   -0.8808534698
     14  H        -2.8593540031   -1.8871190053    0.0000641459
     15  H        -1.3846579539   -2.3373472585    0.8813692739
     16  H        -1.5034499960    0.3630618231   -2.4388253527
     17  H        -1.4387121008    1.8968167340   -1.5597831445
     18  H        -2.9244998128    0.9295466358   -1.5400680899
     19  H         3.3972825734   -1.3752915066   -0.0000681928
     20  H         1.2221656845    2.2066078523    0.0000166170
     21  H         3.7551452755    1.1478399606    0.0000507950
   Point Group: c1    Number of degrees of freedom:    57


   Energy is   -634.698084732

 Hessian Updated using BFGS Update

 47 Hessian modes will be used to form the next step
  Hessian Eigenvalues:
     0.001562    0.002769    0.002933    0.011260    0.019268    0.020128
     0.021532    0.022010    0.023684    0.037027    0.050386    0.052803
     0.053517    0.053641    0.053688    0.053971    0.054080    0.054821
     0.140811    0.149180    0.152469    0.160444    0.161703    0.195137
     0.198673    0.200864    0.206693    0.214786    0.223258    0.315092
     0.339987    0.340031    0.340230    0.340264    0.340330    0.340957
     0.341153    0.341883    0.342450    0.358590    0.359004    0.390914
     0.460904    0.474362    0.512564    0.548460    0.563012

 Minimum Search - Taking Simple RFO Step
 Searching for Lamda that Minimizes Along All modes
 Value Taken    Lamda =  -0.00006076
 Step Taken.  Stepsize is  0.118092

                             Maximum     Tolerance    Cnvgd?
         Gradient           0.001246      0.000001      NO
         Displacement       0.072727      0.000010      NO
         Energy change     -0.000068      0.000000      NO


 New Cartesian Coordinates Obtained by Inverse Iteration

 Displacement from previous Coordinates is:  0.183955
 ----------------------------------------------------------------
             Standard Nuclear Orientation (Angstroms)
    I     Atom           X                Y                Z
 ----------------------------------------------------------------
    1      C      -1.8224110046     0.8709222271     1.5270851375
    2      Si     -1.2174392818    -0.0363131710     0.0000037191
    3      C      -1.7725498866    -1.8193150769     0.0001321113
    4      C      -1.8223975743     0.8706860383    -1.5272221867
    5      C       0.6601754497     0.0228563818     0.0000077091
    6      N       2.6650890836    -0.6759469670     0.0001339991
    7      N       1.3911149156    -1.0926071217    -0.0000609820
    8      C       1.5019055405     1.1637728871    -0.0000586689
    9      C       2.7821041923     0.6722471708    -0.0000754248
   10      H      -1.4004155118     1.8822543526     1.5683450552
   11      H      -2.9154559600     0.9630647032     1.5349628199
   12      H      -1.5181365072     0.3481721204     2.4394342827
   13      H      -1.3924232976    -2.3452961878    -0.8806867100
   14      H      -2.8667484597    -1.8942409808     0.0000901789
   15      H      -1.3924978236    -2.3451568081     0.8810672308
   16      H      -1.5181691738     0.3477684887    -2.4394900730
   17      H      -1.4003560788     1.8819914047    -1.5686633838
   18      H      -2.9154383992     0.9628761302    -1.5350898094
   19      H       3.4050261849    -1.3602451450     0.0002633061
   20      H       1.1988589348     2.2025468933    -0.0000995811
   21      H       3.7420624706     1.1676305350    -0.0001050459
 ----------------------------------------------------------------
 Molecular Point Group                 C1    NOp =  1
 Largest Abelian Subgroup              C1    NOp =  1
 Nuclear Repulsion Energy =   526.3656153926 hartrees
 There are       38 alpha and       38 beta electrons
 Applying Cartesian multipole field
    Component          Value
    ---------          -----
     (2,0,0)        1.00000E-11
     (0,2,0)        2.00000E-11
     (0,0,2)       -3.00000E-11
 Nucleus-field energy     =     0.0000000101 hartrees
 Requested basis set is 6-311+G(d,p)
 There are 109 shells and 278 basis functions
 A cutoff of  1.0D-11 yielded   5069 shell pairs
 There are     34132 function pairs (     36366 Cartesian)
 Smallest overlap matrix eigenvalue = 1.22E-05
 Guess MOs from SCF MO coefficient file
 Reading MOs from coefficient file
 Reading MOs from coefficient file

 -----------------------------------------------------------------------
  General SCF calculation program by
  Eric Jon Sundstrom, Paul Horn, Yuezhi Mao, Dmitri Zuev, Alec White,
  David Stuck, Shaama M.S., Shane Yost, Joonho Lee, David Small,
  Daniel Levine, Susi Lehtola, Hugh Burton, Evgeny Epifanovsky
 -----------------------------------------------------------------------
 Exchange:     0.2700 Hartree-Fock + 1.0000 M06
 Correlation:  1.0000 M06
 Using SG-3 standard quadrature grid
 using 4 threads for integral computing
 -------------------------------------------------------
 OpenMP Integral computing Module                
 Release: version 1.0, May 2013, Q-Chem Inc. Pittsburgh 
 -------------------------------------------------------
 -------------------------------------------------------
 OpenMP BLAS3 based DFT computing Module                
 Release: version 1.0, May 2013, Q-Chem Inc. Pittsburgh 
 -------------------------------------------------------
 A restricted SCF calculation will be
 performed using DIIS
 SCF converges when DIIS error is below 1.0e-08
 ---------------------------------------
  Cycle       Energy         DIIS error
 ---------------------------------------
    1    -634.6981451075      2.75e-04  
    2    -634.6981055986      2.66e-05  
    3    -634.6981074147      3.15e-05  
    4    -634.6981155303      1.00e-05  
    5    -634.6981163070      3.69e-06  
    6    -634.6981164230      9.54e-07  
    7    -634.6981164301      3.44e-07  
    8    -634.6981164310      9.23e-08  
    9    -634.6981164311      2.16e-08  
   10    -634.6981164311      7.39e-09  Convergence criterion met
 ---------------------------------------
 SCF time:   CPU 166.04s  wall 42.00s 
 SCF   energy in the final basis set =     -634.6981164311
 Total energy in the final basis set =     -634.6981164311
 
 --------------------------------------------------------------
 
                    Orbital Energies (a.u.)
 --------------------------------------------------------------
 
 Alpha MOs
 -- Occupied --
-66.238 -14.461 -14.404 -10.274 -10.237 -10.230 -10.205 -10.205
-10.202  -5.346  -3.666  -3.666  -3.665  -1.067  -0.831  -0.794
 -0.722  -0.686  -0.685  -0.620  -0.600  -0.560  -0.476  -0.462
 -0.444  -0.435  -0.421  -0.414  -0.412  -0.399  -0.396  -0.387
 -0.331  -0.315  -0.310  -0.296  -0.272  -0.269
 -- Virtual --
 -0.037  -0.028  -0.018  -0.012  -0.003  -0.000   0.004   0.018
  0.024   0.028   0.031   0.032   0.035   0.049   0.057   0.060
  0.063   0.071   0.078   0.078   0.088   0.088   0.092   0.100
  0.114   0.117   0.120   0.129   0.138   0.139   0.146   0.154
  0.156   0.163   0.165   0.170   0.179   0.184   0.186   0.193
  0.199   0.204   0.208   0.210   0.216   0.226   0.241   0.245
  0.254   0.264   0.271   0.283   0.292   0.298   0.311   0.323
  0.323   0.338   0.354   0.387   0.405   0.424   0.446   0.452
  0.459   0.490   0.499   0.506   0.529   0.529   0.537   0.556
  0.562   0.575   0.586   0.593   0.602   0.615   0.622   0.630
  0.648   0.658   0.667   0.669   0.680   0.695   0.702   0.703
  0.719   0.738   0.743   0.753   0.764   0.788   0.804   0.820
  0.847   0.860   0.863   0.877   0.882   0.899   0.914   0.924
  0.945   0.954   0.972   1.018   1.018   1.048   1.051   1.075
  1.100   1.134   1.148   1.168   1.214   1.226   1.245   1.265
  1.328   1.392   1.393   1.454   1.459   1.463   1.467   1.481
  1.493   1.510   1.538   1.568   1.576   1.588   1.589   1.605
  1.619   1.620   1.624   1.641   1.658   1.713   1.715   1.718
  1.754   1.770   1.771   1.791   1.808   1.810   1.811   1.824
  1.871   1.897   1.902   1.962   1.982   2.033   2.063   2.065
  2.080   2.115   2.116   2.153   2.160   2.176   2.199   2.235
  2.239   2.258   2.343   2.356   2.383   2.397   2.426   2.426
  2.432   2.442   2.471   2.479   2.482   2.493   2.522   2.523
  2.547   2.570   2.579   2.615   2.619   2.639   2.640   2.658
  2.674   2.716   2.733   2.755   2.760   2.822   2.856   2.907
  2.926   2.930   2.963   3.003   3.100   3.135   3.269   3.276
  3.312   3.327   3.374   3.477   3.562   3.664   3.675   3.692
  3.708   3.714   3.730   3.809   3.927   4.007   4.100   4.147
  4.570   4.900   5.437   5.894  11.680  11.719  11.733  23.691
 23.923  23.925  23.943  23.952  24.162  35.526  35.555 141.299
 --------------------------------------------------------------
 
          Ground-State Mulliken Net Atomic Charges

     Atom                 Charge (a.u.)
  ----------------------------------------
      1 C                    -0.667317
      2 Si                    0.939904
      3 C                    -0.721360
      4 C                    -0.667314
      5 C                    -0.567769
      6 N                    -0.082639
      7 N                    -0.074702
      8 C                    -0.036706
      9 C                    -0.309602
     10 H                     0.157153
     11 H                     0.168699
     12 H                     0.176633
     13 H                     0.180200
     14 H                     0.170684
     15 H                     0.180204
     16 H                     0.176632
     17 H                     0.157153
     18 H                     0.168695
     19 H                     0.332954
     20 H                     0.160327
     21 H                     0.158171
  ----------------------------------------
  Sum of atomic charges =     0.000000

 -----------------------------------------------------------------
                    Cartesian Multipole Moments
 -----------------------------------------------------------------
    Charge (ESU x 10^10)
                 0.0000
    Dipole Moment (Debye)
         X       1.8553      Y       0.8098      Z       0.0003
       Tot       2.0243
    Quadrupole Moments (Debye-Ang)
        XX     -49.6949     XY      -0.8635     YY     -63.5656
        XZ       0.0007     YZ      -0.0007     ZZ     -66.0900
    Octopole Moments (Debye-Ang^2)
       XXX      63.1709    XXY     -11.0616    XYY      12.3425
       YYY       6.9097    XXZ       0.0036    XYZ      -0.0028
       YYZ      -0.0001    XZZ       1.0294    YZZ      -6.2309
       ZZZ       0.0022
    Hexadecapole Moments (Debye-Ang^3)
      XXXX   -1130.2745   XXXY     -51.0571   XXYY    -289.5452
      XYYY     -16.8120   YYYY    -489.7239   XXXZ       0.0110
      XXYZ      -0.0076   XYYZ       0.0031   YYYZ       0.0009
      XXZZ    -309.9028   XYZZ       0.2099   YYZZ    -142.9881
      XZZZ      -0.0014   YZZZ       0.0040   ZZZZ    -341.5631
 -----------------------------------------------------------------
 Calculating analytic gradient of the SCF energy
 Gradient of SCF Energy
            1           2           3           4           5           6
    1   0.0001828  -0.0003850   0.0001314   0.0001848   0.0002061  -0.0006186
    2   0.0000010  -0.0003881   0.0001675   0.0000006   0.0000663   0.0000947
    3  -0.0000942   0.0000028  -0.0000003   0.0000939   0.0000208   0.0000335
            7           8           9          10          11          12
    1   0.0000554   0.0002362   0.0003651  -0.0000260  -0.0000534  -0.0000172
    2   0.0001463  -0.0000341  -0.0002774  -0.0000126  -0.0000470   0.0000101
    3  -0.0000418   0.0000021  -0.0000233   0.0000584  -0.0000759  -0.0000185
           13          14          15          16          17          18
    1  -0.0000123  -0.0000285  -0.0000123  -0.0000175  -0.0000259  -0.0000529
    2  -0.0000371   0.0001238  -0.0000371   0.0000104  -0.0000125  -0.0000474
    3   0.0000722  -0.0000001  -0.0000720   0.0000182  -0.0000585   0.0000765
           19          20          21
    1  -0.0000105  -0.0000974  -0.0000042
    2   0.0000945   0.0000022   0.0001759
    3   0.0000071   0.0000011  -0.0000022
 Max gradient component =       6.186E-04
 RMS gradient           =       1.422E-04
 Gradient time:  CPU 61.59 s  wall 36.06 s
 Geometry Optimization Parameters
   NAtoms,    NIC,     NZ,  NCons,   NDum,   NFix, NCnnct, MaxDiis
       21     149       0       0       0       0       0       0

 Cartesian Hessian Update
 Hessian Updated using BFGS Update


** GEOMETRY OPTIMIZATION IN DELOCALIZED INTERNAL COORDINATES **
   Searching for a Minimum

   Optimization Cycle:   4

                       Coordinates (Angstroms)
     ATOM                X               Y               Z
      1  C        -1.8224110046    0.8709222271    1.5270851375
      2  Si       -1.2174392818   -0.0363131710    0.0000037191
      3  C        -1.7725498866   -1.8193150769    0.0001321113
      4  C        -1.8223975743    0.8706860383   -1.5272221867
      5  C         0.6601754497    0.0228563818    0.0000077091
      6  N         2.6650890836   -0.6759469670    0.0001339991
      7  N         1.3911149156   -1.0926071217   -0.0000609820
      8  C         1.5019055405    1.1637728871   -0.0000586689
      9  C         2.7821041923    0.6722471708   -0.0000754248
     10  H        -1.4004155118    1.8822543526    1.5683450552
     11  H        -2.9154559600    0.9630647032    1.5349628199
     12  H        -1.5181365072    0.3481721204    2.4394342827
     13  H        -1.3924232976   -2.3452961878   -0.8806867100
     14  H        -2.8667484597   -1.8942409808    0.0000901789
     15  H        -1.3924978236   -2.3451568081    0.8810672308
     16  H        -1.5181691738    0.3477684887   -2.4394900730
     17  H        -1.4003560788    1.8819914047   -1.5686633838
     18  H        -2.9154383992    0.9628761302   -1.5350898094
     19  H         3.4050261849   -1.3602451450    0.0002633061
     20  H         1.1988589348    2.2025468933   -0.0000995811
     21  H         3.7420624706    1.1676305350   -0.0001050459
   Point Group: c1    Number of degrees of freedom:    57


   Energy is   -634.698116431

 Hessian Updated using BFGS Update

 48 Hessian modes will be used to form the next step
  Hessian Eigenvalues:
     0.001646    0.002000    0.002769    0.002933    0.011261    0.019274
     0.020136    0.021537    0.022011    0.023684    0.033870    0.050656
     0.052803    0.053517    0.053658    0.054080    0.054277    0.054900
     0.133838    0.149180    0.152201    0.160155    0.161005    0.163161
     0.197272    0.198673    0.199967    0.204659    0.207436    0.227724
     0.320189    0.339952    0.339987    0.340264    0.340273    0.340333
     0.340957    0.341094    0.341883    0.342100    0.358706    0.358959
     0.396824    0.461075    0.475535    0.508475    0.548153    0.566046

 Minimum Search - Taking Simple RFO Step
 Searching for Lamda that Minimizes Along All modes
 Value Taken    Lamda =  -0.00000505
 Step Taken.  Stepsize is  0.008398

                             Maximum     Tolerance    Cnvgd?
         Gradient           0.000419      0.000001      NO
         Displacement       0.003957      0.000010      NO
         Energy change     -0.000032      0.000000      NO


 New Cartesian Coordinates Obtained by Inverse Iteration

 Displacement from previous Coordinates is:  0.020623
 ----------------------------------------------------------------
             Standard Nuclear Orientation (Angstroms)
    I     Atom           X                Y                Z
 ----------------------------------------------------------------
    1      C      -1.8217619372     0.8714521572     1.5276888619
    2      Si     -1.2183206372    -0.0366461217    -0.0000129094
    3      C      -1.7729938966    -1.8203714501     0.0001735575
    4      C      -1.8217503885     0.8711206528    -1.5279183793
    5      C       0.6590446595     0.0210270102     0.0000137904
    6      N       2.6653155639    -0.6756925428    -0.0001610569
    7      N       1.3915173694    -1.0936652697     0.0002520510
    8      C       1.4992101753     1.1630701108     0.0000915671
    9      C       2.7798608886     0.6728571027     0.0001331107
   10      H      -1.3971697732     1.8817474164     1.5679543004
   11      H      -2.9144463009     0.9665252489     1.5371954867
   12      H      -1.5174111629     0.3484059779     2.4398966501
   13      H      -1.3919970934    -2.3456728985    -0.8807743543
   14      H      -2.8669887656    -1.8976027393     0.0001461934
   15      H      -1.3920524948    -2.3454833725     0.8812588803
   16      H      -1.5174221797     0.3478577735    -2.4400086762
   17      H      -1.3971264698     1.8813927692    -1.5684176011
   18      H      -2.9144323962     0.9662259040    -1.5374406208
   19      H       3.4060516223    -1.3592411413    -0.0003541084
   20      H       1.1953725613     2.2015688933     0.0001083085
   21      H       3.7393984688     1.1687923938     0.0001486326
 ----------------------------------------------------------------
 Molecular Point Group                 C1    NOp =  1
 Largest Abelian Subgroup              C1    NOp =  1
 Nuclear Repulsion Energy =   526.3438635571 hartrees
 There are       38 alpha and       38 beta electrons
 Applying Cartesian multipole field
    Component          Value
    ---------          -----
     (2,0,0)        1.00000E-11
     (0,2,0)        2.00000E-11
     (0,0,2)       -3.00000E-11
 Nucleus-field energy     =     0.0000000101 hartrees
 Requested basis set is 6-311+G(d,p)
 There are 109 shells and 278 basis functions
 A cutoff of  1.0D-11 yielded   5069 shell pairs
 There are     34128 function pairs (     36362 Cartesian)
 Smallest overlap matrix eigenvalue = 1.22E-05
 Guess MOs from SCF MO coefficient file
 Reading MOs from coefficient file
 Reading MOs from coefficient file

 -----------------------------------------------------------------------
  General SCF calculation program by
  Eric Jon Sundstrom, Paul Horn, Yuezhi Mao, Dmitri Zuev, Alec White,
  David Stuck, Shaama M.S., Shane Yost, Joonho Lee, David Small,
  Daniel Levine, Susi Lehtola, Hugh Burton, Evgeny Epifanovsky
 -----------------------------------------------------------------------
 Exchange:     0.2700 Hartree-Fock + 1.0000 M06
 Correlation:  1.0000 M06
 Using SG-3 standard quadrature grid
 using 4 threads for integral computing
 -------------------------------------------------------
 OpenMP Integral computing Module                
 Release: version 1.0, May 2013, Q-Chem Inc. Pittsburgh 
 -------------------------------------------------------
 -------------------------------------------------------
 OpenMP BLAS3 based DFT computing Module                
 Release: version 1.0, May 2013, Q-Chem Inc. Pittsburgh 
 -------------------------------------------------------
 A restricted SCF calculation will be
 performed using DIIS
 SCF converges when DIIS error is below 1.0e-08
 ---------------------------------------
  Cycle       Energy         DIIS error
 ---------------------------------------
    1    -634.6978609760      3.97e-05  
    2    -634.6981191916      4.93e-06  
    3    -634.6981188121      8.44e-06  
    4    -634.6981194692      1.07e-06  
    5    -634.6981194775      4.32e-07  
    6    -634.6981194789      1.86e-07  
    7    -634.6981194792      6.26e-08  
    8    -634.6981194792      1.65e-08  
    9    -634.6981194792      2.88e-09  Convergence criterion met
 ---------------------------------------
 SCF time:   CPU 149.23s  wall 37.00s 
 SCF   energy in the final basis set =     -634.6981194792
 Total energy in the final basis set =     -634.6981194792
 
 --------------------------------------------------------------
 
                    Orbital Energies (a.u.)
 --------------------------------------------------------------
 
 Alpha MOs
 -- Occupied --
-66.238 -14.461 -14.404 -10.274 -10.237 -10.230 -10.206 -10.206
-10.202  -5.346  -3.666  -3.666  -3.666  -1.066  -0.831  -0.794
 -0.722  -0.686  -0.685  -0.621  -0.600  -0.560  -0.476  -0.462
 -0.444  -0.435  -0.421  -0.414  -0.412  -0.399  -0.396  -0.387
 -0.331  -0.315  -0.310  -0.296  -0.272  -0.269
 -- Virtual --
 -0.037  -0.028  -0.018  -0.012  -0.003  -0.000   0.004   0.018
  0.024   0.028   0.031   0.032   0.035   0.049   0.057   0.060
  0.063   0.071   0.078   0.078   0.088   0.088   0.092   0.100
  0.114   0.117   0.120   0.129   0.138   0.139   0.146   0.154
  0.156   0.163   0.165   0.170   0.179   0.184   0.186   0.193
  0.199   0.204   0.208   0.209   0.216   0.226   0.241   0.245
  0.254   0.264   0.271   0.283   0.292   0.297   0.311   0.323
  0.323   0.338   0.354   0.388   0.405   0.424   0.446   0.452
  0.459   0.489   0.499   0.506   0.529   0.529   0.537   0.556
  0.562   0.575   0.586   0.593   0.602   0.616   0.622   0.630
  0.648   0.658   0.667   0.669   0.680   0.695   0.702   0.703
  0.719   0.738   0.743   0.752   0.764   0.788   0.804   0.820
  0.847   0.860   0.862   0.877   0.882   0.899   0.914   0.924
  0.945   0.955   0.972   1.018   1.018   1.048   1.051   1.075
  1.100   1.134   1.148   1.169   1.214   1.226   1.244   1.265
  1.328   1.392   1.393   1.454   1.459   1.463   1.467   1.481
  1.493   1.509   1.539   1.568   1.576   1.588   1.589   1.605
  1.620   1.620   1.624   1.641   1.658   1.713   1.715   1.719
  1.754   1.769   1.771   1.791   1.808   1.810   1.812   1.823
  1.871   1.896   1.902   1.962   1.982   2.033   2.063   2.065
  2.080   2.115   2.116   2.153   2.160   2.176   2.199   2.235
  2.239   2.258   2.343   2.356   2.383   2.397   2.426   2.426
  2.432   2.442   2.471   2.479   2.482   2.493   2.522   2.523
  2.547   2.570   2.579   2.615   2.618   2.639   2.640   2.658
  2.674   2.716   2.733   2.755   2.760   2.822   2.856   2.907
  2.926   2.930   2.963   3.003   3.099   3.135   3.269   3.275
  3.312   3.327   3.374   3.477   3.562   3.664   3.675   3.692
  3.709   3.714   3.730   3.809   3.926   4.007   4.100   4.147
  4.570   4.900   5.436   5.894  11.680  11.719  11.732  23.691
 23.923  23.925  23.943  23.952  24.162  35.526  35.555 141.298
 --------------------------------------------------------------
 
          Ground-State Mulliken Net Atomic Charges

     Atom                 Charge (a.u.)
  ----------------------------------------
      1 C                    -0.667389
      2 Si                    0.940431
      3 C                    -0.721239
      4 C                    -0.667383
      5 C                    -0.568975
      6 N                    -0.082461
      7 N                    -0.075203
      8 C                    -0.034823
      9 C                    -0.310056
     10 H                     0.156958
     11 H                     0.168836
     12 H                     0.176606
     13 H                     0.180062
     14 H                     0.170726
     15 H                     0.180058
     16 H                     0.176606
     17 H                     0.156960
     18 H                     0.168839
     19 H                     0.333043
     20 H                     0.160348
     21 H                     0.158056
  ----------------------------------------
  Sum of atomic charges =     0.000000

 -----------------------------------------------------------------
                    Cartesian Multipole Moments
 -----------------------------------------------------------------
    Charge (ESU x 10^10)
                 0.0000
    Dipole Moment (Debye)
         X       1.8542      Y       0.8162      Z      -0.0006
       Tot       2.0259
    Quadrupole Moments (Debye-Ang)
        XX     -49.6913     XY      -0.8662     YY     -63.5793
        XZ      -0.0013     YZ       0.0013     ZZ     -66.0878
    Octopole Moments (Debye-Ang^2)
       XXX      63.2319    XXY     -11.0371    XYY      12.3494
       YYY       6.9883    XXZ      -0.0065    XYZ       0.0045
       YYZ      -0.0039    XZZ       1.0412    YZZ      -6.2119
       ZZZ      -0.0029
    Hexadecapole Moments (Debye-Ang^3)
      XXXX   -1129.3634   XXXY     -51.1915   XXYY    -289.4399
      XYYY     -16.6953   YYYY    -490.2257   XXXZ      -0.0243
      XXYZ       0.0121   XYYZ      -0.0047   YYYZ       0.0025
      XXZZ    -309.6982   XYZZ       0.2172   YYZZ    -143.1041
      XZZZ      -0.0117   YZZZ      -0.0020   ZZZZ    -341.7559
 -----------------------------------------------------------------
 Calculating analytic gradient of the SCF energy
 Gradient of SCF Energy
            1           2           3           4           5           6
    1   0.0000561  -0.0000634   0.0000986   0.0000515  -0.0000485  -0.0001021
    2   0.0000210  -0.0001079   0.0000433   0.0000216   0.0001099  -0.0001810
    3   0.0000040  -0.0000062   0.0000006  -0.0000035  -0.0000465  -0.0000644
            7           8           9          10          11          12
    1   0.0001701   0.0000352   0.0000650  -0.0000187  -0.0000217  -0.0000180
    2   0.0001107   0.0001478  -0.0001507  -0.0000262  -0.0000113   0.0000068
    3   0.0000849   0.0000017   0.0000411   0.0000246  -0.0000243   0.0000171
           13          14          15          16          17          18
    1  -0.0000195  -0.0000212  -0.0000198  -0.0000175  -0.0000187  -0.0000226
    2  -0.0000375   0.0000618  -0.0000378   0.0000064  -0.0000266  -0.0000105
    3   0.0000184  -0.0000000  -0.0000185  -0.0000166  -0.0000243   0.0000230
           19          20          21
    1   0.0000424  -0.0000669  -0.0000604
    2   0.0000190  -0.0000106   0.0000519
    3  -0.0000137  -0.0000012   0.0000038
 Max gradient component =       1.810E-04
 RMS gradient           =       6.000E-05
 Gradient time:  CPU 60.92 s  wall 35.90 s
 Geometry Optimization Parameters
   NAtoms,    NIC,     NZ,  NCons,   NDum,   NFix, NCnnct, MaxDiis
       21     149       0       0       0       0       0       0

 Cartesian Hessian Update
 Hessian Updated using BFGS Update


** GEOMETRY OPTIMIZATION IN DELOCALIZED INTERNAL COORDINATES **
   Searching for a Minimum

   Optimization Cycle:   5

                       Coordinates (Angstroms)
     ATOM                X               Y               Z
      1  C        -1.8217619372    0.8714521572    1.5276888619
      2  Si       -1.2183206372   -0.0366461217   -0.0000129094
      3  C        -1.7729938966   -1.8203714501    0.0001735575
      4  C        -1.8217503885    0.8711206528   -1.5279183793
      5  C         0.6590446595    0.0210270102    0.0000137904
      6  N         2.6653155639   -0.6756925428   -0.0001610569
      7  N         1.3915173694   -1.0936652697    0.0002520510
      8  C         1.4992101753    1.1630701108    0.0000915671
      9  C         2.7798608886    0.6728571027    0.0001331107
     10  H        -1.3971697732    1.8817474164    1.5679543004
     11  H        -2.9144463009    0.9665252489    1.5371954867
     12  H        -1.5174111629    0.3484059779    2.4398966501
     13  H        -1.3919970934   -2.3456728985   -0.8807743543
     14  H        -2.8669887656   -1.8976027393    0.0001461934
     15  H        -1.3920524948   -2.3454833725    0.8812588803
     16  H        -1.5174221797    0.3478577735   -2.4400086762
     17  H        -1.3971264698    1.8813927692   -1.5684176011
     18  H        -2.9144323962    0.9662259040   -1.5374406208
     19  H         3.4060516223   -1.3592411413   -0.0003541084
     20  H         1.1953725613    2.2015688933    0.0001083085
     21  H         3.7393984688    1.1687923938    0.0001486326
   Point Group: c1    Number of degrees of freedom:    57


   Energy is   -634.698119479

 Hessian Updated using BFGS Update

 49 Hessian modes will be used to form the next step
  Hessian Eigenvalues:
     0.001689    0.002000    0.002769    0.002933    0.011324    0.019410
     0.020406    0.021691    0.022033    0.023684    0.028034    0.050625
     0.052102    0.052811    0.053517    0.053688    0.053711    0.054897
     0.114696    0.145310    0.149185    0.153721    0.160227    0.160922
     0.161028    0.197217    0.198673    0.201266    0.205161    0.208997
     0.251426    0.332421    0.339612    0.339987    0.340221    0.340264
     0.340337    0.340957    0.341276    0.341883    0.342269    0.358825
     0.361348    0.396910    0.461483    0.470224    0.503895    0.563307
     0.580104

 Minimum Search - Taking Simple RFO Step
 Searching for Lamda that Minimizes Along All modes
 Value Taken    Lamda =  -0.00000184
 Step Taken.  Stepsize is  0.011851

                             Maximum     Tolerance    Cnvgd?
         Gradient           0.000170      0.000001      NO
         Displacement       0.005601      0.000010      NO
         Energy change     -0.000003      0.000000      NO


 New Cartesian Coordinates Obtained by Inverse Iteration

 Displacement from previous Coordinates is:  0.016126
 ----------------------------------------------------------------
             Standard Nuclear Orientation (Angstroms)
    I     Atom           X                Y                Z
 ----------------------------------------------------------------
    1      C      -1.8214889396     0.8718935084     1.5280295634
    2      Si     -1.2191309418    -0.0365664073     0.0000332661
    3      C      -1.7731661372    -1.8207955395     0.0000781977
    4      C      -1.8214622971     0.8717896293    -1.5280305541
    5      C       0.6580953271     0.0199190122     0.0000130063
    6      N       2.6647404241    -0.6757654412     0.0004847734
    7      N       1.3909336693    -1.0945032061    -0.0004000324
    8      C       1.4978397289     1.1622702546    -0.0003345881
    9      C       2.7786712835     0.6728281039    -0.0002697307
   10      H      -1.3974467061     1.8825572005     1.5662842944
   11      H      -2.9141393851     0.9662770016     1.5400524080
   12      H      -1.5144993615     0.3499215171     2.4399710757
   13      H      -1.3910765284    -2.3451761939    -0.8809869334
   14      H      -2.8669423902    -1.9003558893     0.0000685442
   15      H      -1.3910933116    -2.3451323126     0.8811771270
   16      H      -1.5145267108     0.3497268009    -2.4399377365
   17      H      -1.3973714236     1.8824295226    -1.5663814050
   18      H      -2.9141074027     0.9662243949    -1.5400287048
   19      H       3.4055887108    -1.3591884016     0.0009999702
   20      H       1.1941280051     2.2007777576    -0.0005314604
   21      H       3.7383521999     1.1685365627    -0.0003173967
 ----------------------------------------------------------------
 Molecular Point Group                 C1    NOp =  1
 Largest Abelian Subgroup              C1    NOp =  1
 Nuclear Repulsion Energy =   526.3555375886 hartrees
 There are       38 alpha and       38 beta electrons
 Applying Cartesian multipole field
    Component          Value
    ---------          -----
     (2,0,0)        1.00000E-11
     (0,2,0)        2.00000E-11
     (0,0,2)       -3.00000E-11
 Nucleus-field energy     =     0.0000000101 hartrees
 Requested basis set is 6-311+G(d,p)
 There are 109 shells and 278 basis functions
 A cutoff of  1.0D-11 yielded   5067 shell pairs
 There are     34110 function pairs (     36344 Cartesian)
 Smallest overlap matrix eigenvalue = 1.22E-05
 Guess MOs from SCF MO coefficient file
 Reading MOs from coefficient file
 Reading MOs from coefficient file

 -----------------------------------------------------------------------
  General SCF calculation program by
  Eric Jon Sundstrom, Paul Horn, Yuezhi Mao, Dmitri Zuev, Alec White,
  David Stuck, Shaama M.S., Shane Yost, Joonho Lee, David Small,
  Daniel Levine, Susi Lehtola, Hugh Burton, Evgeny Epifanovsky
 -----------------------------------------------------------------------
 Exchange:     0.2700 Hartree-Fock + 1.0000 M06
 Correlation:  1.0000 M06
 Using SG-3 standard quadrature grid
 using 4 threads for integral computing
 -------------------------------------------------------
 OpenMP Integral computing Module                
 Release: version 1.0, May 2013, Q-Chem Inc. Pittsburgh 
 -------------------------------------------------------
 -------------------------------------------------------
 OpenMP BLAS3 based DFT computing Module                
 Release: version 1.0, May 2013, Q-Chem Inc. Pittsburgh 
 -------------------------------------------------------
 A restricted SCF calculation will be
 performed using DIIS
 SCF converges when DIIS error is below 1.0e-08
 ---------------------------------------
  Cycle       Energy         DIIS error
 ---------------------------------------
    1    -634.6980920451      2.57e-05  
    2    -634.6981201164      3.17e-06  
    3    -634.6981201022      4.22e-06  
    4    -634.6981202419      8.99e-07  
    5    -634.6981202478      3.40e-07  
    6    -634.6981202488      1.25e-07  
    7    -634.6981202489      3.99e-08  
    8    -634.6981202489      1.47e-08  
    9    -634.6981202489      3.23e-09  Convergence criterion met
 ---------------------------------------
 SCF time:   CPU 147.51s  wall 37.00s 
[...]
 H          0.111  0.181  0.082    0.264  0.406  0.172    0.024 -0.018 -0.030
 H         -0.166  0.275 -0.191    0.087 -0.119  0.087   -0.052 -0.007 -0.014
 H         -0.197  0.047 -0.304    0.092 -0.026  0.145    0.012  0.005 -0.002
 H          0.048  0.191 -0.307   -0.022 -0.077  0.147    0.004 -0.053 -0.011
 H         -0.009 -0.025 -0.000   -0.013 -0.024 -0.000   -0.124 -0.162 -0.000
 H          0.033  0.021  0.000    0.012  0.011  0.000    0.294  0.158  0.000
 H          0.029 -0.034 -0.000    0.019 -0.017  0.000    0.147  0.348  0.000
 TransDip  -0.056  0.203  0.000    0.109  0.112  0.000    0.141  0.006  0.000

 Mode:                37                     38                     39
 Frequency:      1411.08                1415.50                1419.13
 Force Cnst:      1.2349                 2.9232                 1.2471
 Red. Mass:       1.0526                 2.4762                 1.0510
 IR Active:          YES                    YES                    YES
 IR Intens:        0.180                  9.586                  0.824
 Raman Active:       YES                    YES                    YES
               X      Y      Z        X      Y      Z        X      Y      Z
 C         -0.006 -0.029  0.016    0.012  0.012 -0.004    0.035  0.017  0.004
 Si         0.000  0.000 -0.001   -0.020 -0.000  0.000    0.000  0.000 -0.002
 C          0.000  0.000 -0.043   -0.003  0.002 -0.000    0.000  0.000 -0.028
 C          0.006  0.029  0.016    0.012  0.012  0.004   -0.035 -0.017  0.004
 C         -0.000 -0.000  0.000    0.255  0.040 -0.000   -0.000 -0.000  0.000
 N         -0.000 -0.000  0.000    0.065  0.054 -0.000   -0.000 -0.000  0.000
 N          0.000 -0.000 -0.000   -0.093  0.002  0.000    0.000  0.000 -0.000
 C          0.000  0.000  0.000   -0.152 -0.122 -0.000    0.000  0.000  0.000
 C          0.000 -0.000  0.000   -0.040  0.085 -0.000    0.000  0.000 -0.000
 H         -0.211  0.067  0.062    0.021  0.006 -0.098   -0.109  0.082 -0.296
 H          0.025  0.316 -0.201   -0.000 -0.102  0.126    0.021 -0.069  0.263
 H          0.258 -0.005 -0.067   -0.177 -0.071  0.013   -0.379 -0.252 -0.015
 H          0.311  0.105  0.039    0.018 -0.014  0.019    0.214  0.076  0.026
 H          0.000 -0.000  0.498   -0.004  0.012 -0.000    0.000 -0.000  0.341
 H         -0.311 -0.105  0.039    0.018 -0.014 -0.019   -0.214 -0.076  0.026
 H         -0.258  0.005 -0.067   -0.177 -0.070 -0.014    0.379  0.252 -0.015
 H          0.211 -0.068  0.062    0.023  0.006  0.097    0.109 -0.082 -0.296
 H         -0.025 -0.316 -0.201   -0.001 -0.103 -0.126   -0.021  0.069  0.263
 H          0.000  0.000 -0.001   -0.410 -0.449 -0.000    0.000  0.000  0.000
 H         -0.000 -0.000 -0.005    0.446  0.031  0.000   -0.000 -0.000 -0.002
 H         -0.000  0.000 -0.001    0.183 -0.346 -0.000   -0.000  0.000 -0.001
 TransDip   0.000  0.000  0.014   -0.093 -0.034 -0.000   -0.000 -0.000  0.029

 Mode:                40                     41                     42
 Frequency:      1423.73                1424.33                1428.43
 Force Cnst:      1.2512                 1.2572                 1.3072
 Red. Mass:       1.0476                 1.0518                 1.0874
 IR Active:          YES                    YES                    YES
 IR Intens:        5.926                  3.019                  3.879
 Raman Active:       YES                    YES                    YES
               X      Y      Z        X      Y      Z        X      Y      Z
 C         -0.023  0.019 -0.019    0.017 -0.025  0.023   -0.027 -0.024  0.005
 Si        -0.000  0.000 -0.007    0.000 -0.005 -0.000   -0.006 -0.007 -0.000
 C         -0.000  0.000 -0.031   -0.025  0.011 -0.000    0.028 -0.008 -0.000
 C          0.023 -0.019 -0.019    0.017 -0.025 -0.023   -0.027 -0.024 -0.005
 C          0.000 -0.000  0.002    0.008  0.006  0.000    0.039  0.015  0.000
 N          0.000  0.000 -0.000    0.002 -0.001 -0.000    0.010  0.011 -0.000
 N         -0.000 -0.000  0.000   -0.002 -0.001  0.000   -0.013 -0.005  0.000
 C         -0.000 -0.000 -0.000   -0.005 -0.008 -0.000   -0.028 -0.020 -0.000
 C         -0.000  0.000 -0.000   -0.003  0.009 -0.000   -0.003  0.009 -0.000
 H          0.355 -0.154  0.159   -0.376  0.157 -0.114   -0.025 -0.024  0.248
 H         -0.050 -0.329  0.016    0.050  0.394 -0.095   -0.004  0.196 -0.294
 H          0.003  0.217  0.098    0.099 -0.193 -0.115    0.403  0.176 -0.026
 H          0.257  0.094  0.030    0.180 -0.137  0.173   -0.199  0.140 -0.182
 H          0.000 -0.000  0.401   -0.026  0.138  0.000    0.031 -0.161  0.000
 H         -0.257 -0.094  0.030    0.179 -0.137 -0.173   -0.200  0.139  0.182
 H         -0.003 -0.217  0.097    0.100 -0.193  0.115    0.403  0.175  0.026
 H         -0.354  0.154  0.160   -0.377  0.157  0.114   -0.025 -0.024 -0.248
 H          0.050  0.328  0.015    0.050  0.395  0.095   -0.004  0.196  0.295
 H         -0.000 -0.000  0.000   -0.008 -0.012 -0.000   -0.069 -0.072  0.000
 H          0.000  0.000  0.007    0.029  0.000  0.000    0.075  0.007  0.000
 H          0.000 -0.000 -0.001    0.013 -0.022 -0.000    0.026 -0.044 -0.000
 TransDip  -0.000 -0.000  0.078   -0.012  0.054  0.000    0.010  0.062  0.000

 Mode:                43                     44                     45
 Frequency:      1441.51                1471.63                1546.62
 Force Cnst:      1.2847                 3.8215                 4.5017
 Red. Mass:       1.0493                 2.9949                 3.1942
 IR Active:          YES                    YES                    YES
 IR Intens:        8.462                  4.478                  6.379
 Raman Active:       YES                    YES                    YES
               X      Y      Z        X      Y      Z        X      Y      Z
 C         -0.022 -0.001 -0.010   -0.001  0.001 -0.001    0.001  0.001  0.000
 Si        -0.010  0.001  0.000   -0.001 -0.001 -0.000    0.008 -0.003 -0.000
 C         -0.043  0.017  0.000    0.000  0.000 -0.000   -0.002  0.001  0.000
 C         -0.022 -0.001  0.010   -0.001  0.001  0.001    0.001  0.001 -0.000
 C          0.013  0.001 -0.000    0.001  0.069 -0.000   -0.141  0.122  0.000
 N          0.001  0.002  0.000   -0.049 -0.232 -0.000    0.104  0.083 -0.000
 N         -0.002  0.000 -0.000    0.016  0.042  0.000    0.052 -0.117  0.000
 C         -0.003 -0.005  0.000    0.050 -0.126 -0.000    0.242 -0.053  0.000
 C         -0.005  0.005 -0.000   -0.097  0.281 -0.000   -0.237  0.075 -0.000
 H          0.187 -0.098  0.211    0.019 -0.008  0.011    0.004  0.000 -0.001
 H         -0.028 -0.102 -0.123   -0.002 -0.017 -0.005    0.001 -0.008 -0.003
 H          0.175  0.211  0.051    0.005  0.013  0.005   -0.003 -0.001  0.001
 H          0.325 -0.252  0.313   -0.018  0.012 -0.014   -0.007  0.006 -0.005
 H         -0.049  0.270 -0.000    0.001 -0.027  0.000   -0.000 -0.023 -0.000
 H          0.325 -0.252 -0.313   -0.018  0.012  0.014   -0.007  0.006  0.005
 H          0.175  0.211 -0.051    0.004  0.012 -0.005   -0.003 -0.001 -0.001
 H          0.187 -0.098 -0.211    0.018 -0.007 -0.010    0.005 -0.000  0.001
 H         -0.028 -0.102  0.123   -0.002 -0.017  0.005    0.001 -0.008  0.003
 H         -0.022 -0.021 -0.000    0.632  0.455  0.000   -0.490 -0.544 -0.000
 H          0.017 -0.000  0.000    0.194 -0.110  0.000   -0.244 -0.228  0.000
 H          0.005 -0.014  0.000    0.231 -0.340 -0.000   -0.045 -0.397  0.000
 TransDip   0.093 -0.009  0.000   -0.033  0.059  0.000   -0.078 -0.021 -0.000

 Mode:                46                     47                     48
 Frequency:      3010.75                3011.48                3018.47
 Force Cnst:      5.5286                 5.5319                 5.5610
 Red. Mass:       1.0352                 1.0353                 1.0359
 IR Active:          YES                    YES                    YES
 IR Intens:        6.909                  6.906                  6.374
 Raman Active:       YES                    YES                    YES
               X      Y      Z        X      Y      Z        X      Y      Z
 C         -0.011  0.020  0.027    0.011 -0.019 -0.027    0.001 -0.002 -0.002
 Si         0.000 -0.001 -0.000    0.000 -0.000  0.001    0.000  0.001  0.000
 C         -0.001 -0.003  0.000   -0.000  0.000 -0.000   -0.019 -0.047 -0.000
 C         -0.011  0.020 -0.027   -0.011  0.020 -0.027    0.001 -0.002  0.002
 C         -0.000  0.000  0.000    0.000  0.000 -0.000    0.000 -0.000  0.000
 N         -0.000 -0.000 -0.000    0.000 -0.000  0.000   -0.000  0.000 -0.000
 N          0.000 -0.000  0.000   -0.000  0.000 -0.000    0.000  0.000 -0.000
 C          0.000 -0.000 -0.000   -0.000 -0.000  0.000   -0.000  0.000  0.000
 C         -0.000  0.000 -0.000    0.000  0.000  0.000   -0.000 -0.000  0.000
 H         -0.175 -0.389 -0.006    0.174  0.387  0.005    0.012  0.026 -0.000
 H          0.412 -0.033  0.004   -0.410  0.033 -0.004   -0.028  0.002 -0.000
 H         -0.112  0.193 -0.313    0.112 -0.192  0.311    0.007 -0.012  0.019
 H         -0.013  0.018  0.029   -0.000  0.000  0.001   -0.199  0.255  0.448
 H          0.040  0.002  0.000   -0.000  0.000 -0.000    0.617  0.027 -0.000
 H         -0.013  0.018 -0.029    0.001 -0.000  0.001   -0.199  0.256 -0.448
 H         -0.111  0.191  0.311   -0.112  0.194  0.313    0.007 -0.012 -0.019
 H         -0.174 -0.386  0.005   -0.176 -0.390  0.005    0.012  0.025  0.000
 H          0.409 -0.033 -0.003    0.413 -0.033 -0.004   -0.028  0.002  0.000
 H         -0.000  0.000 -0.000   -0.000  0.000  0.000   -0.000  0.000  0.000
 H         -0.000  0.001  0.000    0.000  0.000  0.000   -0.000  0.000 -0.000
 H          0.000  0.000 -0.000   -0.000 -0.000 -0.000    0.000  0.000 -0.000
 TransDip  -0.057  0.062  0.000   -0.000  0.000 -0.084   -0.046 -0.066 -0.000

 Mode:                49                     50                     51
 Frequency:      3098.87                3099.13                3106.13
 Force Cnst:      6.2259                 6.2252                 6.2584
 Red. Mass:       1.1004                 1.1001                 1.1010
 IR Active:          YES                    YES                    YES
 IR Intens:        1.385                 22.469                 15.461
 Raman Active:       YES                    YES                    YES
               X      Y      Z        X      Y      Z        X      Y      Z
 C         -0.045 -0.046  0.012   -0.043 -0.045  0.013   -0.046  0.033 -0.038
 Si        -0.000 -0.000  0.000   -0.001 -0.001 -0.000   -0.001  0.000 -0.000
 C          0.000  0.000  0.002    0.000  0.000 -0.000   -0.000 -0.000  0.000
 C          0.044  0.045  0.012   -0.044 -0.047 -0.013   -0.042  0.029  0.035
 C          0.000 -0.000 -0.000    0.000 -0.000  0.000    0.000 -0.000 -0.000
 N         -0.000  0.000 -0.000   -0.000  0.000  0.000    0.000 -0.000  0.000
 N          0.000  0.000  0.000    0.000  0.000 -0.000    0.000 -0.000  0.000
 C         -0.000  0.000  0.000   -0.000  0.000 -0.000    0.000 -0.000  0.000
 C          0.000 -0.000  0.000    0.000 -0.000  0.000   -0.000 -0.000 -0.000
 H          0.219  0.516  0.022    0.213  0.502  0.023   -0.045 -0.076 -0.012
 H          0.393 -0.048 -0.003    0.371 -0.047 -0.003    0.445 -0.037 -0.015
 H         -0.066  0.088 -0.167   -0.067  0.092 -0.172    0.157 -0.280  0.487
 H          0.004 -0.006 -0.009   -0.001  0.001  0.001   -0.000 -0.000  0.001
 H         -0.000  0.000  0.001   -0.003  0.001 -0.000    0.001  0.001  0.000
 H         -0.004  0.006 -0.009   -0.000  0.001 -0.001   -0.000 -0.000 -0.002
 H          0.064 -0.085 -0.161   -0.069  0.094  0.177    0.141 -0.252 -0.438
 H         -0.212 -0.500  0.021    0.220  0.518 -0.024   -0.040 -0.068  0.011
 H         -0.381  0.047 -0.003    0.384 -0.048  0.003    0.401 -0.034  0.014
 H         -0.000  0.000 -0.000   -0.000  0.000  0.000   -0.000  0.000 -0.000
 H          0.000 -0.000 -0.000    0.001 -0.005  0.000   -0.000  0.001 -0.000
 H          0.000  0.000 -0.000    0.001  0.001  0.000    0.000  0.000 -0.000
 TransDip  -0.002 -0.002  0.038   -0.115 -0.099 -0.001   -0.107  0.067 -0.004

 Mode:                52                     53                     54
 Frequency:      3106.18                3108.88                3109.75
 Force Cnst:      6.2591                 6.2718                 6.2643
 Red. Mass:       1.1011                 1.1014                 1.0994
 IR Active:          YES                    YES                    YES
 IR Intens:        5.709                 10.053                  7.212
 Raman Active:       YES                    YES                    YES
               X      Y      Z        X      Y      Z        X      Y      Z
 C         -0.041  0.031 -0.035   -0.000 -0.000  0.000   -0.001 -0.001  0.000
 Si         0.000 -0.000 -0.001   -0.001  0.000 -0.000    0.000  0.000 -0.001
 C         -0.000  0.000  0.000   -0.087  0.030 -0.000    0.000 -0.000 -0.091
 C          0.045 -0.034 -0.039   -0.000 -0.000  0.000    0.001  0.001  0.000
 C         -0.000  0.000 -0.000    0.000  0.000  0.000    0.000 -0.000  0.000
 N         -0.000  0.000  0.000    0.000 -0.000 -0.000    0.000 -0.000  0.000
 N         -0.000  0.000  0.000   -0.000 -0.000  0.000   -0.000  0.000  0.000
 C         -0.000  0.000  0.000    0.000 -0.000  0.000    0.000 -0.000  0.000
 C          0.000  0.000 -0.000   -0.000  0.000  0.000   -0.000 -0.000 -0.000
 H         -0.046 -0.080 -0.011    0.001  0.001  0.000    0.003  0.008  0.001
 H          0.393 -0.032 -0.012    0.001 -0.001 -0.001    0.007 -0.001 -0.000
 H          0.143 -0.254  0.442   -0.001  0.001 -0.000   -0.001  0.003 -0.002
 H          0.001  0.000 -0.001    0.137 -0.211 -0.358   -0.249  0.350  0.559
 H         -0.000 -0.000  0.000    0.777  0.060 -0.000   -0.001 -0.000 -0.018
 H         -0.001 -0.000 -0.001    0.137 -0.212  0.359    0.248 -0.349  0.558
 H         -0.158  0.282  0.491   -0.001  0.001  0.000    0.001 -0.003 -0.002
 H          0.050  0.088 -0.012    0.001  0.002 -0.000   -0.004 -0.008  0.001
 H         -0.437  0.036 -0.014    0.002 -0.001  0.001   -0.007  0.001 -0.000
 H          0.000 -0.000 -0.000    0.000 -0.000 -0.000   -0.000  0.000 -0.000
 H          0.000 -0.000 -0.000   -0.000  0.001  0.000   -0.000  0.000 -0.000
 H         -0.000 -0.000 -0.000   -0.000 -0.000  0.000    0.000  0.000 -0.000
 TransDip   0.006 -0.003 -0.076   -0.100  0.018 -0.000    0.000 -0.000 -0.086

 Mode:                55                     56                     57
 Frequency:      3215.21                3238.87                3650.98
 Force Cnst:      6.6462                 6.8344                 8.4947
 Red. Mass:       1.0912                 1.1058                 1.0816
 IR Active:          YES                    YES                    YES
 IR Intens:        1.348                  2.193                 86.132
 Raman Active:       YES                    YES                    YES
               X      Y      Z        X      Y      Z        X      Y      Z
 C         -0.000 -0.000  0.000   -0.000 -0.000  0.000    0.000 -0.000 -0.000
 Si        -0.000 -0.000  0.000    0.000 -0.000  0.000   -0.000 -0.000  0.000
 C         -0.000  0.000 -0.000   -0.000  0.000  0.000    0.000  0.000 -0.000
 C         -0.000 -0.000 -0.000   -0.000 -0.000 -0.000    0.000 -0.000  0.000
 C          0.002  0.002  0.000    0.002  0.002 -0.000    0.001 -0.002 -0.000
 N         -0.000 -0.000  0.000    0.001  0.002  0.000   -0.053  0.053 -0.000
 N         -0.001  0.000 -0.000    0.001  0.001 -0.000   -0.000  0.001  0.000
 C          0.021 -0.075  0.000    0.018 -0.043  0.000    0.002 -0.001 -0.000
 C          0.033  0.021 -0.000   -0.074 -0.035  0.000   -0.002 -0.004  0.000
 H          0.001  0.003  0.000    0.000  0.001  0.000   -0.000  0.000  0.000
 H          0.001  0.000  0.000    0.000  0.000  0.000    0.000 -0.000 -0.000
 H         -0.000  0.000 -0.001    0.000  0.000 -0.000   -0.000  0.000  0.000
 H          0.000  0.000  0.000    0.000 -0.000 -0.000   -0.000 -0.000  0.000
 H         -0.001 -0.000  0.000   -0.000 -0.000  0.000    0.000  0.000 -0.000
 H          0.000  0.000 -0.000    0.000  0.000  0.000   -0.000 -0.000 -0.000
 H         -0.000  0.000  0.001    0.000  0.000  0.000   -0.000  0.000 -0.000
 H          0.001  0.003 -0.000    0.000  0.001 -0.000   -0.000  0.000 -0.000
 H          0.001  0.000 -0.000    0.000  0.000 -0.000    0.000 -0.000  0.000
 H          0.007 -0.002  0.000   -0.017  0.008  0.000    0.723 -0.687  0.000
 H         -0.242  0.843 -0.000   -0.133  0.450 -0.000   -0.000  0.002  0.000
 H         -0.419 -0.220  0.000    0.781  0.400 -0.000    0.011  0.009 -0.000
 TransDip   0.018 -0.032 -0.000   -0.038 -0.028 -0.000    0.219 -0.201 -0.000

 STANDARD THERMODYNAMIC QUANTITIES AT   298.15 K  AND     1.00 ATM

   This Molecule has  0 Imaginary Frequencies
   Zero point vibrational energy:      106.831 kcal/mol

   Atom    1 Element C  Has Mass   12.00000
   Atom    2 Element Si Has Mass   27.97693
   Atom    3 Element C  Has Mass   12.00000
   Atom    4 Element C  Has Mass   12.00000
   Atom    5 Element C  Has Mass   12.00000
   Atom    6 Element N  Has Mass   14.00307
   Atom    7 Element N  Has Mass   14.00307
   Atom    8 Element C  Has Mass   12.00000
   Atom    9 Element C  Has Mass   12.00000
   Atom   10 Element H  Has Mass    1.00783
   Atom   11 Element H  Has Mass    1.00783
   Atom   12 Element H  Has Mass    1.00783
   Atom   13 Element H  Has Mass    1.00783
   Atom   14 Element H  Has Mass    1.00783
   Atom   15 Element H  Has Mass    1.00783
   Atom   16 Element H  Has Mass    1.00783
   Atom   17 Element H  Has Mass    1.00783
   Atom   18 Element H  Has Mass    1.00783
   Atom   19 Element H  Has Mass    1.00783
   Atom   20 Element H  Has Mass    1.00783
   Atom   21 Element H  Has Mass    1.00783
   Molecular Mass:   140.077030 amu
   Principal axes and moments of inertia in amu*Bohr^2:
                             1           2           3
    Eigenvalues --      765.24961  1978.58845  2177.28417
          X               0.99998     0.00560    -0.00000
          Y              -0.00560     0.99998     0.00000
          Z               0.00000    -0.00000     1.00000
   Rotational Symmetry Number is   1
   The Molecule is an Asymmetric Top
   Translational Enthalpy:        0.889 kcal/mol
   Rotational Enthalpy:           0.889 kcal/mol
   Vibrational Enthalpy:        112.555 kcal/mol
   gas constant (RT):             0.592 kcal/mol
   Translational Entropy:        40.722  cal/mol.K
   Rotational Entropy:           29.579  cal/mol.K
   Vibrational Entropy:          39.503  cal/mol.K

   Total Enthalpy:              114.925 kcal/mol
   Total Entropy:               109.804  cal/mol.K
Archival summary:
1\1\mm2.localdomain\FREQ\ProcedureUnspecified\6-311+G**\i12612\xuedong\FriJun1919:42:262020FriJun1919:42:262020\0\\#,FREQ,ProcedureUnspecified,6-311+G**,\\0,1\Si\C,1,1.86813\H,2,1.09419,1,110.707\H,2,1.09419,1,110.707,3,118.804,0\H,2,1.0966,1,111.466,3,-120.598,0\C,1,1.8768,2,111.567,3,-178.305,0\H,6,1.09468,1,110.925,2,54.7231,0\H,6,1.09671,1,110.501,2,173.936,0\H,6,1.09678,1,111.752,2,-66.0333,0\C,1,1.8768,2,111.567,3,59.4988,0\H,10,1.09468,1,110.925,2,-54.7218,0\H,10,1.09671,1,110.501,2,-173.935,0\H,10,1.09678,1,111.752,2,66.0345,0\C,1,1.87825,2,108.938,3,-59.4028,0\N,14,1.33375,1,121.578,2,-0.00680492,0\N,15,1.34083,14,105.128,1,-180,0\H,16,1.00791,15,119.108,14,-180,0\C,16,1.35338,15,113.032,14,-0,0\H,18,1.08017,16,122.152,15,-180,0\C,18,1.37119,16,106.08,15,-0,0\H,20,1.08204,18,127.211,16,-180,0\\\@

 Total job time:  8616.36s(wall), 23972.71s(cpu) 
 Fri Jun 19 19:42:26 2020

        *************************************************************
        *                                                           *
        *  Thank you very much for using Q-Chem.  Have a nice day.  *
        *                                                           *
        *************************************************************


