
Running Job 1 of 2 19.freq.qcinp
qchem 19.freq.qcinp_10933.0 /scratch/xuedong/qchem10933/ 1
/home/qwang/software/qchem5.1/exe/qcprog.exe_s 19.freq.qcinp_10933.0 /scratch/xuedong/qchem10933/
Check license passed

                  Welcome to Q-Chem
     A Quantum Leap Into The Future Of Chemistry


 Q-Chem 5.1, Q-Chem, Inc., Pleasanton, CA (2018)

 Yihan Shao,  Zhengting Gan,  E. Epifanovsky,  A. T. B. Gilbert,  M. Wormit,  
 J. Kussmann,  A. W. Lange,  A. Behn,  Jia Deng,  Xintian Feng,  D. Ghosh,  
 M. Goldey,  P. R. Horn,  L. D. Jacobson,  I. Kaliman,  T. Kus,  A. Landau,  
 Jie Liu,  E. I. Proynov,  R. M. Richard,  R. P. Steele,  E. J. Sundstrom,  
 H. L. Woodcock III,  P. M. Zimmerman,  D. Zuev,  B. Albrecht,  E. Alguire,  
 S. A. Baeppler,  D. Barton,  Z. Benda,  Y. A. Bernard,  E. J. Berquist,  
 K. B. Bravaya,  H. Burton,  D. Casanova,  Chun-Min Chang,  Yunqing Chen,  
 A. Chien,  K. D. Closser,  M. P. Coons,  S. Coriani,  S. Dasgupta,  
 A. L. Dempwolff,  M. Diedenhofen,  Hainam Do,  R. G. Edgar,  Po-Tung Fang,  
 S. Faraji,  S. Fatehi,  Qingguo Feng,  K. D. Fenk,  J. Fosso-Tande,  
 Qinghui Ge,  A. Ghysels,  G. Gidofalvi,  J. Gomes,  J. Gonthier,  A. Gunina,  
 D. Hait,  M. W. D. Hanson-Heine,  P. H. P. Harbach,  A. W. Hauser,  
 J. E. Herr,  E. G. Hohenstein,  Z. C. Holden,  Kerwin Hui,  B. C. Huynh,  
 T.-C. Jagau,  Hyunjun Ji,  B. Kaduk,  K. Khistyaev,  Jaehoon Kim,  
 P. Klunzinger,  K. Koh,  D. Kosenkov,  L. Koulias,  T. Kowalczyk,  
 C. M. Krauter,  A. Kunitsa,  Ka Un Lao,  A. Laurent,  K. V. Lawler,  
 Joonho Lee,  D. Lefrancois,  S. Lehtola,  D. S. Levine,  Yi-Pei Li,  
 You-Sheng Lin,  Fenglai Liu,  E. Livshits,  A. Luenser,  P. Manohar,  
 E. Mansoor,  S. F. Manzer,  Shan-Ping Mao,  Yuezhi Mao,  N. Mardirossian,  
 A. V. Marenich,  T. Markovich,  L. A. Martinez-Martinez,  S. A. Maurer,  
 N. J. Mayhall,  S. C. McKenzie,  J.-M. Mewes,  A. F. Morrison,  
 J. W. Mullinax,  K. Nanda,  T. S. Nguyen-Beck,  R. Olivares-Amaya,  
 J. A. Parkhill,  T. M. Perrine,  F. Plasser,  P. Pokhilko,  S. Prager,  
 A. Prociuk,  E. Ramos,  D. R. Rehn,  F. Rob,  M. Schneider,  N. Sergueev,  
 S. M. Sharada,  S. Sharma,  D. W. Small,  T. Stauch,  T. Stein,  
 Yu-Chuan Su,  A. J. W. Thom,  A. Tkatchenko,  T. Tsuchimochi,  N. M. Tubman,  
 L. Vogt,  M. L. Vidal,  O. Vydrov,  M. A. Watson,  J. Wenzel,  
 M. de Wergifosse,  T. A. Wesolowski,  A. White,  J. Witte,  A. Yamada,  
 Jun Yang,  K. Yao,  S. Yeganeh,  S. R. Yost,  Zhi-Qiang You,  A. Zech,  
 Igor Ying Zhang,  Xing Zhang,  Yan Zhao,  Ying Zhu,  B. R. Brooks,  
 G. K. L. Chan,  C. J. Cramer,  M. S. Gordon,  W. J. Hehre,  A. Klamt,  
 M. W. Schmidt,  C. D. Sherrill,  D. G. Truhlar,  A. Aspuru-Guzik,  R. Baer,  
 A. T. Bell,  N. A. Besley,  Jeng-Da Chai,  R. A. DiStasio Jr.,  A. Dreuw,  
 B. D. Dunietz,  T. R. Furlani,  Chao-Ping Hsu,  Yousung Jung,  Jing Kong,  
 D. S. Lambrecht,  WanZhen Liang,  C. Ochsenfeld,  V. A. Rassolov,  
 L. V. Slipchenko,  J. E. Subotnik,  T. Van Voorhis,  J. M. Herbert,  
 A. I. Krylov,  P. M. W. Gill,  M. Head-Gordon

 Contributors to earlier versions of Q-Chem not listed above: 
 R. D. Adamson,  B. Austin,  J. Baker,  G. J. O. Beran,  K. Brandhorst,  
 S. T. Brown,  E. F. C. Byrd,  A. K. Chakraborty,  C.-L. Cheng,  
 Siu Hung Chien,  D. M. Chipman,  D. L. Crittenden,  H. Dachsel,  
 R. J. Doerksen,  A. D. Dutoi,  L. Fusti-Molnar,  W. A. Goddard III,  
 A. Golubeva-Zadorozhnaya,  S. R. Gwaltney,  G. Hawkins,  A. Heyden,  
 S. Hirata,  G. Kedziora,  F. J. Keil,  C. Kelley,  Jihan Kim,  R. A. King,  
 R. Z. Khaliullin,  P. P. Korambath,  W. Kurlancheek,  A. M. Lee,  M. S. Lee,  
 S. V. Levchenko,  Ching Yeh Lin,  D. Liotard,  R. C. Lochan,  I. Lotan,  
 P. E. Maslen,  N. Nair,  D. P. O'Neill,  D. Neuhauser,  E. Neuscamman,  
 C. M. Oana,  R. Olson,  B. Peters,  R. Peverati,  P. A. Pieniazek,  
 Y. M. Rhee,  J. Ritchie,  M. A. Rohrdanz,  E. Rosta,  N. J. Russ,  
 H. F. Schaefer III,  N. E. Schultz,  N. Shenvi,  A. C. Simmonett,  A. Sodt,  
 D. Stuck,  K. S. Thanthiriwatte,  V. Vanovschi,  Tao Wang,  A. Warshel,  
 C. F. Williams,  Q. Wu,  X. Xu,  W. Zhang

 Please cite Q-Chem as follows:
 Y. Shao et al., Mol. Phys. 113, 184-215 (2015)
 DOI: 10.1080/00268976.2014.952696

 Q-Chem 5.1.0 for Intel X86 EM64T Linux

 Parts of Q-Chem use Armadillo 8.300.2 (Tropical Shenanigans).
 http://arma.sourceforge.net/

 Q-Chem begins on Tue May 14 09:52:26 2019  

Host: 
0

     Scratch files written to /scratch/xuedong/qchem10933//
 May118 |scratch|qcdevops|jenkins|workspace|build_RNUM 6581   
Processing $rem in /home/qwang/software/qchem5.1/config/preferences.
 MEM_TOTAL  2000 
Core orbitals will be frozen

Checking the input file for inconsistencies... 	...done.

--------------------------------------------------------------
User input:
--------------------------------------------------------------
$comment
optimize molecule at MP2/6-311G+(d,p)
$end

$molecule
0 1
Si     1.712  -0.000   0.000
C    -0.027   0.000   0.000
H     2.149  -0.610  -1.056
H     2.149  -0.610   1.056
H     2.149   1.219  -0.000
H    -0.393   0.513   0.889
H    -0.393  -1.027   0.000
H    -0.393   0.513  -0.889
$end

$rem
JOBTYPE  =  opt
METHOD  =  MP2
BASIS  =  6-311G+(d,p)
SCF_MAX_CYCLES  =  200
GEOM_OPT_MAX_CYCLES  =  300
GEOM_OPT_TOL_DISPLACEMENT = 120
GEOM_OPT_TOL_ENERGY = 10
GEOM_OPT_TOL_GRADIENT = 20
$end
--------------------------------------------------------------
 ----------------------------------------------------------------
             Standard Nuclear Orientation (Angstroms)
    I     Atom           X                Y                Z
 ----------------------------------------------------------------
    1      Si      0.5937692325     0.0000619341    -0.0000000000
    2      C      -1.1452307669     0.0001058330    -0.0000000000
    3      H       1.0307538337    -0.6099490973    -1.0560000000
    4      H       1.0307538337    -0.6099490972     1.0560000000
    5      H       1.0308000045     1.2190509022    -0.0000000000
    6      H      -1.5112178168     0.5131150721     0.8890000000
    7      H      -1.5112566922    -1.0268849274     0.0000000000
    8      H      -1.5112178168     0.5131150721    -0.8890000000
 ----------------------------------------------------------------
 Molecular Point Group                 Cs    NOp =  2
 Largest Abelian Subgroup              Cs    NOp =  2
 Nuclear Repulsion Energy =    68.0210663612 hartrees
 There are       13 alpha and       13 beta electrons
 Requested basis set is 6-311+G(d,p)
 There are 43 shells and 88 basis functions

 Total QAlloc Memory Limit   2000 MB
 Mega-Array Size       188 MB
 MEM_STATIC part       192 MB
 A cutoff of  1.0D-11 yielded    946 shell pairs
 There are      3999 function pairs (      4188 Cartesian)
 
 -------------------------------------------------------
 OpenMP Integral Computing Module                       
 Release: version 1.0, May 2013, Q-Chem Inc. Pittsburgh 
 -------------------------------------------------------
 Integral Job Info:
 Integral job number is                      11
 Integral operator is                         1
 short-range coefficients                     0
 long-range coefficients              100000000
 Omega coefficients                           0
 if combine SR and LR in K                    0
 Integral screening is                        0
 Integral computing path is                   2
 max size of driver memory is            800000
 size of driver memory is                593474
 size of scratch memory is              4204008
 max col of scratch BK array               1296
 max len of scratch array in speh3          155
 max len of scratch index in speh4           18
 max int batch size is                      520
 min int batch size is                       52
 fixed nKL is                                52
 max L of basis functions is                  2
 order of int derivative is                   0
 number of shells is                         43
 number of basis is                          90
 number of cartesian basis is                90
 number of contracted shell pairs           946
 number of primitive shell pairs           2311
 maxK2 (contraction) of shell pair           36
 max number of K2 of shell pair               1
 max number of CS2 of shell pair            150
 max number of PS2 of shell pair            330
 mem total for path MDJ                  509784
 -------------------------------------------------------
 Smallest overlap matrix eigenvalue = 8.08E-04

 Scale SEOQF with 1.000000e-01/1.000000e-01/1.000000e-01

 Standard Electronic Orientation quadrupole field applied
 Nucleus-field energy     =     0.0000000007 hartrees
 Guess from superposition of atomic densities
 Warning:  Energy on first SCF cycle will be non-variational
 SAD guess density has 26.000000 electrons

 -----------------------------------------------------------------------
  General SCF calculation program by
  Eric Jon Sundstrom, Paul Horn, Yuezhi Mao, Dmitri Zuev, Alec White,
  David Stuck, Shaama M.S., Shane Yost, Joonho Lee, David Small,
  Daniel Levine, Susi Lehtola, Hugh Burton, Evgeny Epifanovsky
 -----------------------------------------------------------------------
 Hartree-Fock
 using 4 threads for integral computing
 -------------------------------------------------------
 OpenMP Integral computing Module                
 Release: version 1.0, May 2013, Q-Chem Inc. Pittsburgh 
 -------------------------------------------------------
 A restricted SCF calculation will be
 performed using DIIS
 SCF converges when DIIS error is below 1.0e-08
 ---------------------------------------
  Cycle       Energy         DIIS error
 ---------------------------------------
    1    -330.9419669871      6.93e-02  
    2    -330.2215753005      4.34e-03  
    3    -330.2471856188      1.28e-03  
    4    -330.2496989946      5.06e-04  
    5    -330.2500847157      7.05e-05  
    6    -330.2500997773      1.19e-05  
    7    -330.2501002208      2.89e-06  
    8    -330.2501002405      5.54e-07  
    9    -330.2501002412      1.23e-07  
   10    -330.2501002412      2.29e-08  
   11    -330.2501002412      3.90e-09  Convergence criterion met
 ---------------------------------------
 SCF time:   CPU 3.25s  wall 1.00s 
 SCF   energy in the final basis set =     -330.2501002412
 Total energy in the final basis set =     -330.2501002412
 
 Components of the MP2 correlation energy:
        aaaa  correlation energy =        -0.0246882810 au
        abab  correlation energy =        -0.2237683510 au
        bbbb  correlation energy =        -0.0246882810 au
        non-Brillouin singles    =        -0.0000000000 au

 Total  MP2   correlation energy =                    -0.27314491 au
        MP2         total energy =                  -330.52324515 au
  Entering Z-vector solver.
   1         0           1      0.000212    0.000212
   2         0           1      0.000057    0.000057
   3         0           1      0.000009    0.000009
   4         0           1      0.000002    0.000002
   5         1           0      0.000000    0.000000    Roots Converged
 
 --------------------------------------------------------------
             Orbital Energies (a.u.) and Symmetries
 --------------------------------------------------------------
 
 Alpha MOs, Restricted
 -- Occupied --                  
-68.702 -11.191  -6.069  -4.176  -4.176  -4.175  -0.963  -0.731
  1 A'    2 A'    3 A'    4 A'    1 A"    5 A'    6 A'    7 A'                 
 -0.577  -0.577  -0.487  -0.487  -0.464
  2 A"    8 A'    9 A'    3 A"   10 A'                                         
 -- Virtual --                   
  0.057   0.073   0.080   0.080   0.120   0.129   0.129   0.193
 11 A'   12 A'   13 A'    4 A"   14 A'    5 A"   15 A'   16 A'                 
  0.202   0.202   0.217   0.267   0.267   0.321   0.372   0.372
  6 A"   17 A'   18 A'   19 A'    7 A"   20 A'   21 A'    8 A"                 
  0.389   0.475   0.520   0.520   0.580   0.580   0.594   0.626
 22 A'   23 A'    9 A"   24 A'   10 A"   25 A'   26 A'   27 A'                 
  0.802   0.817   0.817   0.849   0.850   0.920   1.062   1.230
 28 A'   29 A'   11 A"   30 A'   12 A"   31 A'   32 A'   13 A"                 
  1.230   1.256   1.356   1.356   1.433   1.434   1.531   1.545
 33 A'   34 A'   35 A'   14 A"   36 A'   15 A"   37 A'   16 A"                 
  1.713   1.726   1.726   1.823   1.823   1.973   1.996   1.996
 17 A"   18 A"   38 A'   39 A'   19 A"   40 A'   41 A'   20 A"                 
  2.039   2.148   2.148   2.283   2.465   2.519   2.519   2.694
 42 A'   43 A'   21 A"   44 A'   45 A'   22 A"   46 A'   23 A"                 
  2.695   2.809   2.824   2.824   2.888   2.888   3.069   3.069
 47 A'   48 A'   49 A'   24 A"   50 A'   25 A"   51 A'   26 A"                 
  3.085   3.213   3.777   4.174   4.175   6.259  12.541  12.557
 52 A'   53 A'   54 A'   55 A'   27 A"   56 A'   57 A'   28 A"                 
 12.557  25.124 144.120
 58 A'   59 A'   60 A'                                                         
 
 Beta MOs, Restricted
 -- Occupied --                  
-68.702 -11.191  -6.069  -4.176  -4.176  -4.175  -0.963  -0.731
  1 A'    2 A'    3 A'    4 A'    1 A"    5 A'    6 A'    7 A'                 
 -0.577  -0.577  -0.487  -0.487  -0.464
  2 A"    8 A'    9 A'    3 A"   10 A'                                         
 -- Virtual --                   
  0.057   0.073   0.080   0.080   0.120   0.129   0.129   0.193
 11 A'   12 A'   13 A'    4 A"   14 A'    5 A"   15 A'   16 A'                 
  0.202   0.202   0.217   0.267   0.267   0.321   0.372   0.372
  6 A"   17 A'   18 A'   19 A'    7 A"   20 A'   21 A'    8 A"                 
  0.389   0.475   0.520   0.520   0.580   0.580   0.594   0.626
 22 A'   23 A'    9 A"   24 A'   10 A"   25 A'   26 A'   27 A'                 
  0.802   0.817   0.817   0.849   0.850   0.920   1.062   1.230
 28 A'   29 A'   11 A"   30 A'   12 A"   31 A'   32 A'   13 A"                 
  1.230   1.256   1.356   1.356   1.433   1.434   1.531   1.545
 33 A'   34 A'   35 A'   14 A"   36 A'   15 A"   37 A'   16 A"                 
  1.713   1.726   1.726   1.823   1.823   1.973   1.996   1.996
 17 A"   18 A"   38 A'   39 A'   19 A"   40 A'   41 A'   20 A"                 
  2.039   2.148   2.148   2.283   2.465   2.519   2.519   2.694
 42 A'   43 A'   21 A"   44 A'   45 A'   22 A"   46 A'   23 A"                 
  2.695   2.809   2.824   2.824   2.888   2.888   3.069   3.069
 47 A'   48 A'   49 A'   24 A"   50 A'   25 A"   51 A'   26 A"                 
  3.085   3.213   3.777   4.174   4.175   6.259  12.541  12.557
 52 A'   53 A'   54 A'   55 A'   27 A"   56 A'   57 A'   28 A"                 
 12.557  25.124 144.120
 58 A'   59 A'   60 A'                                                         
 --------------------------------------------------------------
 
          Ground-State Mulliken Net Atomic Charges

     Atom                 Charge (a.u.)
  ----------------------------------------
      1 Si                    0.896066
      2 C                    -0.763525
      3 H                    -0.201761
      4 H                    -0.201761
      5 H                    -0.201784
      6 H                     0.157599
      7 H                     0.157566
      8 H                     0.157599
  ----------------------------------------
  Sum of atomic charges =    -0.000000

 -----------------------------------------------------------------
                    Cartesian Multipole Moments
 -----------------------------------------------------------------
    Charge (ESU x 10^10)
                -0.0000
    Dipole Moment (Debye)
         X      -0.4636      Y       0.0014      Z       0.0000
       Tot       0.4636
    Quadrupole Moments (Debye-Ang)
        XX     -23.2964     XY       0.0013     YY     -22.4132
        XZ      -0.0000     YZ      -0.0000     ZZ     -22.4133
    Octopole Moments (Debye-Ang^2)
       XXX       2.4392    XXY       0.0021    XYY      -2.3591
       YYY      -2.1485    XXZ       0.0000    XYZ       0.0000
       YYZ      -0.0000    XZZ      -2.3602    YZZ       2.1563
       ZZZ       0.0000
    Hexadecapole Moments (Debye-Ang^3)
      XXXX    -153.7827   XXXY       0.0025   XXYY     -33.7875
      XYYY      -0.1045   YYYY     -49.8011   XXXZ      -0.0000
      XXYZ      -0.0000   XYYZ      -0.0000   YYYZ       0.0000
      XXZZ     -33.7871   XYZZ       0.1095   YYZZ     -16.6016
      XZZZ       0.0000   YZZZ      -0.0000   ZZZZ     -49.8037
 -----------------------------------------------------------------
 DrvMan is completing analytic gradient of the MP2 energy
 MP2 relaxed dipole moment
            1
    1  -0.1823869
    2   0.0005377
    3   0.0000000
	Magnitude:	 0.182 au	 0.464 Debye
 MP2 energy read as -330.523245
 Full Analytical Gradient of MP2 Energy (in au.)
             1             2             3             4             5
    1    0.03430474    0.05989684   -0.03726598   -0.03726598   -0.03741880
    2    0.00036344    0.00036237    0.04932092    0.04932092   -0.09899460
    3    0.00000000    0.00000000    0.08542091   -0.08542091   -0.00000000
             6             7             8
    1    0.00596398    0.00582122    0.00596398
    2   -0.00008614   -0.00020078   -0.00008614
    3   -0.00011789    0.00000000    0.00011789
 Gradient time:  CPU 0.09 s  wall 0.09 s
 Geometry Optimization Parameters
   NAtoms,    NIC,     NZ,  NCons,   NDum,   NFix, NCnnct, MaxDiis
        8      44       0       0       0       0       0       0


** GEOMETRY OPTIMIZATION IN DELOCALIZED INTERNAL COORDINATES **
   Searching for a Minimum

   Optimization Cycle:   1

                       Coordinates (Angstroms)
     ATOM                X               Y               Z
      1  Si        0.5937692325    0.0000619341    0.0000000000
      2  C        -1.1452307669    0.0001058330    0.0000000000
      3  H         1.0307538337   -0.6099490972   -1.0560000000
      4  H         1.0307538337   -0.6099490972    1.0560000000
      5  H         1.0308000045    1.2190509022    0.0000000000
      6  H        -1.5112178168    0.5131150721    0.8890000000
      7  H        -1.5112566922   -1.0268849274    0.0000000000
      8  H        -1.5112178168    0.5131150721   -0.8890000000
   Point Group: cs    Number of degrees of freedom:    11


   Energy is   -330.523245154


 Attempting to Generate Delocalized Internal Coordinates

 11 Hessian modes will be used to form the next step
  Hessian Eigenvalues:
     0.069853    0.069986    0.160000    0.160000    0.160000    0.160000
     0.303323    0.303797    0.315777    0.347816    0.348473

 Minimum Search - Taking Simple RFO Step
 Searching for Lamda that Minimizes Along All modes
 Value Taken    Lamda =  -0.09858440
 Calculated Step too Large.  Step scaled by  0.605704
 Step Taken.  Stepsize is  0.300000

                             Maximum     Tolerance    Cnvgd?
         Gradient           0.137071      0.000020      NO
         Displacement       0.208642      0.000120      NO
         Energy change     *********      0.000000      NO


 New Cartesian Coordinates Obtained by Inverse Iteration

 Displacement from previous Coordinates is:  0.366376
 ----------------------------------------------------------------
             Standard Nuclear Orientation (Angstroms)
    I     Atom           X                Y                Z
 ----------------------------------------------------------------
    1      Si      0.6159361471    -0.0000050443     0.0000000000
    2      C      -1.1831260679     0.0000454945     0.0000000000
    3      H       1.0879453021    -0.6483664881    -1.1224745930
    4      H       1.0879453021    -0.6483664881     1.1224745930
    5      H       1.0880584656     1.2959260444     0.0000000000
    6      H      -1.5632283741     0.5113165354     0.8859548832
    7      H      -1.5631485887    -1.0232008976     0.0000000000
    8      H      -1.5632283741     0.5113165354    -0.8859548832
 ----------------------------------------------------------------
 Molecular Point Group                 Cs    NOp =  2
 Largest Abelian Subgroup              Cs    NOp =  2
 Nuclear Repulsion Energy =    65.5701519558 hartrees
 There are       13 alpha and       13 beta electrons
 Applying Cartesian multipole field
    Component          Value
    ---------          -----
     (2,0,0)        1.00000E-11
     (0,2,0)        2.00000E-11
     (0,0,2)       -3.00000E-11
 Nucleus-field energy     =     0.0000000007 hartrees
 Requested basis set is 6-311+G(d,p)
 There are 43 shells and 88 basis functions
 A cutoff of  1.0D-11 yielded    943 shell pairs
 There are      3996 function pairs (      4185 Cartesian)
 Smallest overlap matrix eigenvalue = 8.89E-04
 Guess MOs from SCF MO coefficient file
 Reading MOs from coefficient file
 Reading MOs from coefficient file

 -----------------------------------------------------------------------
  General SCF calculation program by
  Eric Jon Sundstrom, Paul Horn, Yuezhi Mao, Dmitri Zuev, Alec White,
  David Stuck, Shaama M.S., Shane Yost, Joonho Lee, David Small,
  Daniel Levine, Susi Lehtola, Hugh Burton, Evgeny Epifanovsky
 -----------------------------------------------------------------------
 Hartree-Fock
 using 4 threads for integral computing
 -------------------------------------------------------
 OpenMP Integral computing Module                
 Release: version 1.0, May 2013, Q-Chem Inc. Pittsburgh 
 -------------------------------------------------------
 A restricted SCF calculation will be
 performed using DIIS
 SCF converges when DIIS error is below 1.0e-08
 ---------------------------------------
  Cycle       Energy         DIIS error
 ---------------------------------------
    1    -330.2329496180      5.90e-03  
    2    -330.2939908093      5.02e-04  
    3    -330.2942140831      9.81e-05  
    4    -330.2942263049      2.58e-05  
    5    -330.2942281752      6.16e-06  
    6    -330.2942282828      1.86e-06  
    7    -330.2942282905      4.28e-07  
    8    -330.2942282908      9.71e-08  
    9    -330.2942282908      1.65e-08  
   10    -330.2942282908      3.19e-09  Convergence criterion met
 ---------------------------------------
 SCF time:   CPU 3.02s  wall 1.00s 
 SCF   energy in the final basis set =     -330.2942282908
 Total energy in the final basis set =     -330.2942282908
 
 Components of the MP2 correlation energy:
        aaaa  correlation energy =        -0.0243152739 au
        abab  correlation energy =        -0.2228706276 au
        bbbb  correlation energy =        -0.0243152739 au
        non-Brillouin singles    =        -0.0000000000 au

 Total  MP2   correlation energy =                    -0.27150118 au
        MP2         total energy =                  -330.56572947 au
  Entering Z-vector solver.
   1         0           1      0.000220    0.000220
   2         0           1      0.000057    0.000057
   3         0           1      0.000009    0.000009
   4         0           1      0.000002    0.000002
   5         1           0      0.000000    0.000000    Roots Converged
 
 --------------------------------------------------------------
             Orbital Energies (a.u.) and Symmetries
 --------------------------------------------------------------
 
 Alpha MOs, Restricted
 -- Occupied --                  
-68.733 -11.200  -6.090  -4.196  -4.196  -4.196  -0.956  -0.717
  1 A'    2 A'    3 A'    4 A'    1 A"    5 A'    6 A'    7 A'                 
 -0.570  -0.570  -0.479  -0.479  -0.461
  2 A"    8 A'    9 A'    3 A"   10 A'                                         
 -- Virtual --                   
  0.057   0.073   0.081   0.081   0.118   0.128   0.128   0.193
 11 A'   12 A'    4 A"   13 A'   14 A'    5 A"   15 A'    6 A"                 
  0.193   0.194   0.212   0.265   0.265   0.305   0.373   0.373
 16 A'   17 A'   18 A'   19 A'    7 A"   20 A'   21 A'    8 A"                 
  0.382   0.463   0.509   0.509   0.584   0.584   0.596   0.617
 22 A'   23 A'    9 A"   24 A'   10 A"   25 A'   26 A'   27 A'                 
  0.757   0.815   0.816   0.845   0.845   0.923   1.065   1.167
 28 A'   29 A'   11 A"   30 A'   12 A"   31 A'   32 A'   13 A"                 
  1.167   1.192   1.342   1.342   1.442   1.442   1.537   1.539
 33 A'   34 A'   14 A"   35 A'   36 A'   15 A"   37 A'   16 A"                 
  1.712   1.712   1.718   1.811   1.811   1.946   1.957   1.957
 17 A"   38 A'   18 A"   19 A"   39 A'   40 A'   41 A'   20 A"                 
  1.999   2.084   2.084   2.264   2.376   2.492   2.492   2.579
 42 A'   43 A'   21 A"   44 A'   45 A'   22 A"   46 A'   23 A"                 
  2.579   2.795   2.824   2.824   2.867   2.868   3.030   3.030
 47 A'   48 A'   24 A"   49 A'   50 A'   25 A"   26 A"   51 A'                 
  3.068   3.164   3.693   4.161   4.161   6.239  12.446  12.446
 52 A'   53 A'   54 A'   55 A'   27 A"   56 A'   28 A"   57 A'                 
 12.450  25.111 144.066
 58 A'   59 A'   60 A'                                                         
 
 Beta MOs, Restricted
 -- Occupied --                  
-68.733 -11.200  -6.090  -4.196  -4.196  -4.196  -0.956  -0.717
  1 A'    2 A'    3 A'    4 A'    1 A"    5 A'    6 A'    7 A'                 
 -0.570  -0.570  -0.479  -0.479  -0.461
  2 A"    8 A'    9 A'    3 A"   10 A'                                         
 -- Virtual --                   
  0.057   0.073   0.081   0.081   0.118   0.128   0.128   0.193
 11 A'   12 A'    4 A"   13 A'   14 A'    5 A"   15 A'    6 A"                 
  0.193   0.194   0.212   0.265   0.265   0.305   0.373   0.373
 16 A'   17 A'   18 A'   19 A'    7 A"   20 A'   21 A'    8 A"                 
  0.382   0.463   0.509   0.509   0.584   0.584   0.596   0.617
 22 A'   23 A'    9 A"   24 A'   10 A"   25 A'   26 A'   27 A'                 
  0.757   0.815   0.816   0.845   0.845   0.923   1.065   1.167
 28 A'   29 A'   11 A"   30 A'   12 A"   31 A'   32 A'   13 A"                 
  1.167   1.192   1.342   1.342   1.442   1.442   1.537   1.539
 33 A'   34 A'   14 A"   35 A'   36 A'   15 A"   37 A'   16 A"                 
  1.712   1.712   1.718   1.811   1.811   1.946   1.957   1.957
 17 A"   38 A'   18 A"   19 A"   39 A'   40 A'   41 A'   20 A"                 
  1.999   2.084   2.084   2.264   2.376   2.492   2.492   2.579
 42 A'   43 A'   21 A"   44 A'   45 A'   22 A"   46 A'   23 A"                 
  2.579   2.795   2.824   2.824   2.867   2.868   3.030   3.030
 47 A'   48 A'   24 A"   49 A'   50 A'   25 A"   26 A"   51 A'                 
  3.068   3.164   3.693   4.161   4.161   6.239  12.446  12.446
 52 A'   53 A'   54 A'   55 A'   27 A"   56 A'   28 A"   57 A'                 
 12.450  25.111 144.066
 58 A'   59 A'   60 A'                                                         
 --------------------------------------------------------------
 
          Ground-State Mulliken Net Atomic Charges

     Atom                 Charge (a.u.)
  ----------------------------------------
      1 Si                    0.834294
      2 C                    -0.752174
      3 H                    -0.186362
      4 H                    -0.186362
      5 H                    -0.186360
      6 H                     0.158995
      7 H                     0.158972
      8 H                     0.158995
  ----------------------------------------
  Sum of atomic charges =     0.000000

 -----------------------------------------------------------------
                    Cartesian Multipole Moments
 -----------------------------------------------------------------
    Charge (ESU x 10^10)
                 0.0000
    Dipole Moment (Debye)
         X      -0.5354      Y       0.0009      Z       0.0000
       Tot       0.5354
    Quadrupole Moments (Debye-Ang)
        XX     -23.5357     XY       0.0010     YY     -22.8770
        XZ       0.0000     YZ      -0.0000     ZZ     -22.8768
    Octopole Moments (Debye-Ang^2)
       XXX       0.6683    XXY       0.0025    XYY      -2.7834
       YYY      -2.1275    XXZ       0.0000    XYZ      -0.0000
       YYZ       0.0000    XZZ      -2.7846    YZZ       2.1370
       ZZZ      -0.0000
    Hexadecapole Moments (Debye-Ang^3)
      XXXX    -164.6581   XXXY       0.0023   XXYY     -36.3256
      XYYY      -0.0738   YYYY     -53.5075   XXXZ       0.0000
      XXYZ       0.0000   XYYZ      -0.0000   YYYZ       0.0000
      XXZZ     -36.3239   XYZZ       0.0791   YYZZ     -17.8368
      XZZZ      -0.0000   YZZZ       0.0000   ZZZZ     -53.5086
 -----------------------------------------------------------------
 DrvMan is completing analytic gradient of the MP2 energy
 MP2 relaxed dipole moment
            1
    1  -0.2106258
    2   0.0003692
    3   0.0000000
	Magnitude:	 0.211 au	 0.535 Debye
 MP2 energy read as -330.565729
 Full Analytical Gradient of MP2 Energy (in au.)
             1             2             3             4             5
    1    0.01294678    0.02872295   -0.01696130   -0.01696130   -0.01702574
    2    0.00015670    0.00020077    0.02192508    0.02192508   -0.04400315
    3   -0.00000000    0.00000000    0.03798967   -0.03798967    0.00000000
             6             7             8
    1    0.00311813    0.00304234    0.00311813
    2   -0.00012874    0.00005301   -0.00012874
    3   -0.00019143   -0.00000000    0.00019143
 Gradient time:  CPU 0.09 s  wall 0.08 s
 Geometry Optimization Parameters
   NAtoms,    NIC,     NZ,  NCons,   NDum,   NFix, NCnnct, MaxDiis
        8      44       0       0       0       0       0       0

 Cartesian Hessian Update
 Hessian Updated using BFGS Update


** GEOMETRY OPTIMIZATION IN DELOCALIZED INTERNAL COORDINATES **
   Searching for a Minimum

   Optimization Cycle:   2

                       Coordinates (Angstroms)
     ATOM                X               Y               Z
      1  Si        0.6159361471   -0.0000050443    0.0000000000
      2  C        -1.1831260679    0.0000454945    0.0000000000
      3  H         1.0879453021   -0.6483664881   -1.1224745930
      4  H         1.0879453021   -0.6483664881    1.1224745930
      5  H         1.0880584656    1.2959260444    0.0000000000
      6  H        -1.5632283741    0.5113165354    0.8859548832
      7  H        -1.5631485887   -1.0232008976    0.0000000000
      8  H        -1.5632283741    0.5113165354   -0.8859548832
   Point Group: cs    Number of degrees of freedom:    11


   Energy is   -330.565729466

 Hessian Updated using BFGS Update

  9 Hessian modes will be used to form the next step
  Hessian Eigenvalues:
     0.069853    0.069986    0.159997    0.160337    0.303637    0.313236
     0.347783    0.348410    0.365476

 Minimum Search - Taking Simple RFO Step
 Searching for Lamda that Minimizes Along All modes
 Value Taken    Lamda =  -0.02126148
 Step Taken.  Stepsize is  0.236012

                             Maximum     Tolerance    Cnvgd?
         Gradient           0.061536      0.000020      NO
         Displacement       0.160525      0.000120      NO
         Energy change     -0.042484      0.000000      NO


 New Cartesian Coordinates Obtained by Inverse Iteration

 Displacement from previous Coordinates is:  0.304313
 ----------------------------------------------------------------
             Standard Nuclear Orientation (Angstroms)
    I     Atom           X                Y                Z
 ----------------------------------------------------------------
    1      Si      0.6374503307    -0.0000896195     0.0000000000
    2      C      -1.2167032162    -0.0000438260     0.0000000000
    3      H       1.1391463276    -0.6768679158    -1.1719164059
    4      H       1.1391463276    -0.6768679158     1.1719164059
    5      H       1.1392751205     1.3529783206     0.0000000000
    6      H      -1.6104412281     0.5098149273     0.8833478466
    7      H      -1.6102786221    -1.0200732066     0.0000000000
    8      H      -1.6104412281     0.5098149273    -0.8833478466
 ----------------------------------------------------------------
 Molecular Point Group                 Cs    NOp =  2
 Largest Abelian Subgroup              Cs    NOp =  2
 Nuclear Repulsion Energy =    63.6638396460 hartrees
 There are       13 alpha and       13 beta electrons
 Applying Cartesian multipole field
    Component          Value
    ---------          -----
     (2,0,0)        1.00000E-11
     (0,2,0)        2.00000E-11
     (0,0,2)       -3.00000E-11
 Nucleus-field energy     =     0.0000000008 hartrees
 Requested basis set is 6-311+G(d,p)
 There are 43 shells and 88 basis functions
 A cutoff of  1.0D-11 yielded    943 shell pairs
 There are      3996 function pairs (      4185 Cartesian)
 Smallest overlap matrix eigenvalue = 9.72E-04
 Guess MOs from SCF MO coefficient file
 Reading MOs from coefficient file
 Reading MOs from coefficient file

 -----------------------------------------------------------------------
  General SCF calculation program by
  Eric Jon Sundstrom, Paul Horn, Yuezhi Mao, Dmitri Zuev, Alec White,
  David Stuck, Shaama M.S., Shane Yost, Joonho Lee, David Small,
  Daniel Levine, Susi Lehtola, Hugh Burton, Evgeny Epifanovsky
 -----------------------------------------------------------------------
 Hartree-Fock
 using 4 threads for integral computing
 -------------------------------------------------------
 OpenMP Integral computing Module                
 Release: version 1.0, May 2013, Q-Chem Inc. Pittsburgh 
 -------------------------------------------------------
 A restricted SCF calculation will be
 performed using DIIS
 SCF converges when DIIS error is below 1.0e-08
 ---------------------------------------
  Cycle       Energy         DIIS error
 ---------------------------------------
    1    -330.2541144368      3.85e-03  
    2    -330.3083789024      3.84e-04  
    3    -330.3085506920      7.80e-05  
    4    -330.3085597309      2.12e-05  
    5    -330.3085608980      6.96e-06  
    6    -330.3085610150      1.78e-06  
    7    -330.3085610237      4.67e-07  
    8    -330.3085610241      1.18e-07  
    9    -330.3085610241      1.31e-08  
   10    -330.3085610241      2.57e-09  Convergence criterion met
 ---------------------------------------
 SCF time:   CPU 3.02s  wall 0.00s 
 SCF   energy in the final basis set =     -330.3085610241
 Total energy in the final basis set =     -330.3085610241
 
 Components of the MP2 correlation energy:
        aaaa  correlation energy =        -0.0240554958 au
        abab  correlation energy =        -0.2224935278 au
        bbbb  correlation energy =        -0.0240554958 au
        non-Brillouin singles    =        -0.0000000000 au

 Total  MP2   correlation energy =                    -0.27060452 au
        MP2         total energy =                  -330.57916554 au
  Entering Z-vector solver.
   1         0           1      0.000228    0.000228
   2         0           1      0.000057    0.000057
   3         0           1      0.000009    0.000009
   4         0           1      0.000002    0.000002
   5         1           0      0.000000    0.000000    Roots Converged
 
 --------------------------------------------------------------
             Orbital Energies (a.u.) and Symmetries
 --------------------------------------------------------------
 
 Alpha MOs, Restricted
 -- Occupied --                  
-68.756 -11.207  -6.106  -4.213  -4.213  -4.213  -0.950  -0.707
  1 A'    2 A'    3 A'    1 A"    4 A'    5 A'    6 A'    7 A'                 
 -0.564  -0.564  -0.473  -0.473  -0.458
  2 A"    8 A'    9 A'    3 A"   10 A'                                         
 -- Virtual --                   
  0.058   0.073   0.081   0.081   0.116   0.128   0.128   0.185
 11 A'   12 A'    4 A"   13 A'   14 A'    5 A"   15 A'    6 A"                 
  0.185   0.194   0.208   0.263   0.263   0.288   0.375   0.375
 16 A'   17 A'   18 A'   19 A'    7 A"   20 A'   21 A'    8 A"                 
  0.377   0.452   0.501   0.501   0.587   0.587   0.587   0.620
 22 A'   23 A'    9 A"   24 A'   10 A"   25 A'   26 A'   27 A'                 
  0.728   0.810   0.810   0.845   0.845   0.924   1.065   1.120
 28 A'   29 A'   11 A"   30 A'   12 A"   31 A'   32 A'   13 A"                 
  1.120   1.143   1.329   1.329   1.450   1.450   1.539   1.541
 33 A'   34 A'   14 A"   35 A'   36 A'   15 A"   16 A"   37 A'                 
  1.700   1.700   1.722   1.806   1.806   1.922   1.924   1.924
 17 A"   38 A'   18 A"   19 A"   39 A'   40 A'   41 A'   20 A"                 
  1.966   2.046   2.046   2.225   2.348   2.446   2.446   2.521
 42 A'   43 A'   21 A"   44 A'   45 A'   22 A"   46 A'   23 A"                 
  2.521   2.780   2.823   2.823   2.859   2.859   2.998   2.998
 47 A'   48 A'   24 A"   49 A'   50 A'   25 A"   26 A"   51 A'                 
  3.038   3.139   3.632   4.150   4.150   6.204  12.367  12.367
 52 A'   53 A'   54 A'   55 A'   27 A"   56 A'   28 A"   57 A'                 
 12.383  25.100 144.004
 58 A'   59 A'   60 A'                                                         
 
 Beta MOs, Restricted
 -- Occupied --                  
-68.756 -11.207  -6.106  -4.213  -4.213  -4.213  -0.950  -0.707
  1 A'    2 A'    3 A'    1 A"    4 A'    5 A'    6 A'    7 A'                 
 -0.564  -0.564  -0.473  -0.473  -0.458
  2 A"    8 A'    9 A'    3 A"   10 A'                                         
 -- Virtual --                   
  0.058   0.073   0.081   0.081   0.116   0.128   0.128   0.185
 11 A'   12 A'    4 A"   13 A'   14 A'    5 A"   15 A'    6 A"                 
  0.185   0.194   0.208   0.263   0.263   0.288   0.375   0.375
 16 A'   17 A'   18 A'   19 A'    7 A"   20 A'   21 A'    8 A"                 
  0.377   0.452   0.501   0.501   0.587   0.587   0.587   0.620
 22 A'   23 A'    9 A"   24 A'   10 A"   25 A'   26 A'   27 A'                 
  0.728   0.810   0.810   0.845   0.845   0.924   1.065   1.120
 28 A'   29 A'   11 A"   30 A'   12 A"   31 A'   32 A'   13 A"                 
  1.120   1.143   1.329   1.329   1.450   1.450   1.539   1.541
 33 A'   34 A'   14 A"   35 A'   36 A'   15 A"   16 A"   37 A'                 
  1.700   1.700   1.722   1.806   1.806   1.922   1.924   1.924
 17 A"   38 A'   18 A"   19 A"   39 A'   40 A'   41 A'   20 A"                 
  1.966   2.046   2.046   2.225   2.348   2.446   2.446   2.521
 42 A'   43 A'   21 A"   44 A'   45 A'   22 A"   46 A'   23 A"                 
  2.521   2.780   2.823   2.823   2.859   2.859   2.998   2.998
 47 A'   48 A'   24 A"   49 A'   50 A'   25 A"   26 A"   51 A'                 
  3.038   3.139   3.632   4.150   4.150   6.204  12.367  12.367
 52 A'   53 A'   54 A'   55 A'   27 A"   56 A'   28 A"   57 A'                 
 12.383  25.100 144.004
 58 A'   59 A'   60 A'                                                         
 --------------------------------------------------------------
 
          Ground-State Mulliken Net Atomic Charges

     Atom                 Charge (a.u.)
  ----------------------------------------
      1 Si                    0.788676
      2 C                    -0.739882
      3 H                    -0.175706
      4 H                    -0.175706
      5 H                    -0.175701
      6 H                     0.159442
      7 H                     0.159435
      8 H                     0.159442
  ----------------------------------------
  Sum of atomic charges =    -0.000000

 -----------------------------------------------------------------
                    Cartesian Multipole Moments
 -----------------------------------------------------------------
    Charge (ESU x 10^10)
                 0.0000
    Dipole Moment (Debye)
         X      -0.5893      Y       0.0005      Z      -0.0000
       Tot       0.5893
    Quadrupole Moments (Debye-Ang)
        XX     -23.7046     XY       0.0006     YY     -23.2428
        XZ       0.0000     YZ      -0.0000     ZZ     -23.2426
    Octopole Moments (Debye-Ang^2)
       XXX      -0.9314    XXY       0.0034    XYY      -3.1308
       YYY      -2.0931    XXZ      -0.0000    XYZ       0.0000
       YYZ      -0.0000    XZZ      -3.1318    YZZ       2.1059
       ZZZ      -0.0000
    Hexadecapole Moments (Debye-Ang^3)
      XXXX    -174.7085   XXXY       0.0024   XXYY     -38.6099
      XYYY      -0.0342   YYYY     -56.5022   XXXZ       0.0000
      XXYZ      -0.0000   XYYZ       0.0000   YYYZ      -0.0000
      XXZZ     -38.6086   XYZZ       0.0404   YYZZ     -18.8355
      XZZZ       0.0000   YZZZ      -0.0000   ZZZZ     -56.5060
 -----------------------------------------------------------------
 DrvMan is completing analytic gradient of the MP2 energy
 MP2 relaxed dipole moment
            1
    1  -0.2318441
    2   0.0001913
    3  -0.0000000
	Magnitude:	 0.232 au	 0.589 Debye
 MP2 energy read as -330.579166
 Full Analytical Gradient of MP2 Energy (in au.)
             1             2             3             4             5
    1    0.00564550    0.00861892   -0.00509260   -0.00509260   -0.00512121
    2    0.00007283    0.00003387    0.00672480    0.00672480   -0.01352443
    3   -0.00000000    0.00000000    0.01165849   -0.01165849   -0.00000000
             6             7             8
    1    0.00034911    0.00034377    0.00034911
    2   -0.00000805   -0.00001577   -0.00000805
    3    0.00000533   -0.00000000   -0.00000533
 Gradient time:  CPU 0.09 s  wall 0.08 s
 Geometry Optimization Parameters
   NAtoms,    NIC,     NZ,  NCons,   NDum,   NFix, NCnnct, MaxDiis
        8      44       0       0       0       0       0       0

 Cartesian Hessian Update
 Hessian Updated using BFGS Update


** GEOMETRY OPTIMIZATION IN DELOCALIZED INTERNAL COORDINATES **
   Searching for a Minimum

   Optimization Cycle:   3

                       Coordinates (Angstroms)
     ATOM                X               Y               Z
      1  Si        0.6374503307   -0.0000896195    0.0000000000
      2  C        -1.2167032162   -0.0000438260    0.0000000000
      3  H         1.1391463276   -0.6768679158   -1.1719164059
      4  H         1.1391463276   -0.6768679158    1.1719164059
      5  H         1.1392751205    1.3529783206    0.0000000000
      6  H        -1.6104412281    0.5098149273    0.8833478466
      7  H        -1.6102786221   -1.0200732066    0.0000000000
      8  H        -1.6104412281    0.5098149273   -0.8833478466
   Point Group: cs    Number of degrees of freedom:    11


   Energy is   -330.579165543

 Hessian Updated using BFGS Update

 10 Hessian modes will be used to form the next step
  Hessian Eigenvalues:
     0.069853    0.069986    0.160000    0.160000    0.160952    0.270618
     0.303638    0.314953    0.347825    0.348494

 Minimum Search - Taking Simple RFO Step
 Searching for Lamda that Minimizes Along All modes
 Value Taken    Lamda =  -0.00262321
 Step Taken.  Stepsize is  0.097960

                             Maximum     Tolerance    Cnvgd?
         Gradient           0.018409      0.000020      NO
         Displacement       0.066767      0.000120      NO
         Energy change     -0.013436      0.000000      NO


 New Cartesian Coordinates Obtained by Inverse Iteration

 Displacement from previous Coordinates is:  0.113486
 ----------------------------------------------------------------
             Standard Nuclear Orientation (Angstroms)
    I     Atom           X                Y                Z
 ----------------------------------------------------------------
    1      Si      0.6435419365    -0.0001437635     0.0000000000
    2      C      -1.2298535705    -0.0001029418     0.0000000000
    3      H       1.1555398530    -0.6897370359    -1.1942745100
    4      H       1.1555398530    -0.6897370359     1.1942745100
    5      H       1.1556828611     1.3788033004     0.0000000000
    6      H      -1.6244591972     0.5098237102     0.8832983000
    7      H      -1.6243787268    -1.0200642522     0.0000000000
    8      H      -1.6244591972     0.5098237102    -0.8832983000
 ----------------------------------------------------------------
 Molecular Point Group                 Cs    NOp =  2
 Largest Abelian Subgroup              Cs    NOp =  2
 Nuclear Repulsion Energy =    62.9794784408 hartrees
 There are       13 alpha and       13 beta electrons
 Applying Cartesian multipole field
    Component          Value
    ---------          -----
     (2,0,0)        1.00000E-11
     (0,2,0)        2.00000E-11
     (0,0,2)       -3.00000E-11
 Nucleus-field energy     =     0.0000000008 hartrees
 Requested basis set is 6-311+G(d,p)
 There are 43 shells and 88 basis functions
 A cutoff of  1.0D-11 yielded    943 shell pairs
 There are      3996 function pairs (      4185 Cartesian)
 Smallest overlap matrix eigenvalue = 9.99E-04
 Guess MOs from SCF MO coefficient file
 Reading MOs from coefficient file
 Reading MOs from coefficient file

 -----------------------------------------------------------------------
  General SCF calculation program by
  Eric Jon Sundstrom, Paul Horn, Yuezhi Mao, Dmitri Zuev, Alec White,
  David Stuck, Shaama M.S., Shane Yost, Joonho Lee, David Small,
  Daniel Levine, Susi Lehtola, Hugh Burton, Evgeny Epifanovsky
 -----------------------------------------------------------------------
 Hartree-Fock
 using 4 threads for integral computing
 -------------------------------------------------------
 OpenMP Integral computing Module                
 Release: version 1.0, May 2013, Q-Chem Inc. Pittsburgh 
 -------------------------------------------------------
 A restricted SCF calculation will be
 performed using DIIS
 SCF converges when DIIS error is below 1.0e-08
 ---------------------------------------
  Cycle       Energy         DIIS error
 ---------------------------------------
    1    -330.2869434552      1.44e-03  
    2    -330.3103189580      1.60e-04  
    3    -330.3103534890      3.30e-05  
    4    -330.3103551385      9.03e-06  
    5    -330.3103553214      3.01e-06  
    6    -330.3103553452      7.23e-07  
    7    -330.3103553468      1.76e-07  
    8    -330.3103553469      5.20e-08  
    9    -330.3103553469      6.37e-09  Convergence criterion met
 ---------------------------------------
 SCF time:   CPU 2.72s  wall 1.00s 
 SCF   energy in the final basis set =     -330.3103553469
 Total energy in the final basis set =     -330.3103553469
 
 Components of the MP2 correlation energy:
        aaaa  correlation energy =        -0.0239708415 au
        abab  correlation energy =        -0.2224002475 au
        bbbb  correlation energy =        -0.0239708415 au
        non-Brillouin singles    =        -0.0000000000 au

 Total  MP2   correlation energy =                    -0.27034193 au
        MP2         total energy =                  -330.58069728 au
  Entering Z-vector solver.
   1         0           1      0.000231    0.000231
   2         0           1      0.000057    0.000057
   3         0           1      0.000009    0.000009
   4         0           1      0.000002    0.000002
   5         1           0      0.000000    0.000000    Roots Converged
 
 --------------------------------------------------------------
             Orbital Energies (a.u.) and Symmetries
 --------------------------------------------------------------
 
 Alpha MOs, Restricted
 -- Occupied --                  
-68.765 -11.210  -6.113  -4.220  -4.220  -4.220  -0.949  -0.702
  1 A'    2 A'    3 A'    1 A"    4 A'    5 A'    6 A'    7 A'                 
 -0.563  -0.563  -0.470  -0.470  -0.457
  2 A"    8 A'    9 A'    3 A"   10 A'                                         
 -- Virtual --                   
  0.058   0.073   0.082   0.082   0.115   0.128   0.128   0.182
 11 A'   12 A'    4 A"   13 A'   14 A'    5 A"   15 A'    6 A"                 
  0.182   0.194   0.206   0.263   0.263   0.281   0.375   0.375
 16 A'   17 A'   18 A'   19 A'    7 A"   20 A'   21 A'    8 A"                 
  0.375   0.448   0.498   0.498   0.582   0.587   0.587   0.621
 22 A'   23 A'    9 A"   24 A'   25 A'   10 A"   26 A'   27 A'                 
  0.718   0.808   0.808   0.845   0.845   0.925   1.063   1.100
 28 A'   29 A'   11 A"   30 A'   12 A"   31 A'   32 A'   13 A"                 
  1.100   1.128   1.325   1.325   1.454   1.454   1.540   1.541
 33 A'   34 A'   14 A"   35 A'   36 A'   15 A"   16 A"   37 A'                 
  1.694   1.694   1.721   1.803   1.803   1.909   1.909   1.909
 17 A"   38 A'   18 A"   19 A"   39 A'   40 A'   20 A"   41 A'                 
  1.956   2.035   2.035   2.201   2.340   2.418   2.418   2.507
 42 A'   43 A'   21 A"   44 A'   45 A'   22 A"   46 A'   23 A"                 
  2.507   2.777   2.821   2.821   2.858   2.858   2.986   2.986
 47 A'   48 A'   24 A"   49 A'   25 A"   50 A'   26 A"   51 A'                 
  3.019   3.135   3.610   4.147   4.147   6.186  12.336  12.336
 52 A'   53 A'   54 A'   55 A'   27 A"   56 A'   28 A"   57 A'                 
 12.360  25.097 143.976
 58 A'   59 A'   60 A'                                                         
 
 Beta MOs, Restricted
 -- Occupied --                  
-68.765 -11.210  -6.113  -4.220  -4.220  -4.220  -0.949  -0.702
  1 A'    2 A'    3 A'    1 A"    4 A'    5 A'    6 A'    7 A'                 
 -0.563  -0.563  -0.470  -0.470  -0.457
  2 A"    8 A'    9 A'    3 A"   10 A'                                         
 -- Virtual --                   
  0.058   0.073   0.082   0.082   0.115   0.128   0.128   0.182
 11 A'   12 A'    4 A"   13 A'   14 A'    5 A"   15 A'    6 A"                 
  0.182   0.194   0.206   0.263   0.263   0.281   0.375   0.375
 16 A'   17 A'   18 A'   19 A'    7 A"   20 A'   21 A'    8 A"                 
  0.375   0.448   0.498   0.498   0.582   0.587   0.587   0.621
 22 A'   23 A'    9 A"   24 A'   25 A'   10 A"   26 A'   27 A'                 
  0.718   0.808   0.808   0.845   0.845   0.925   1.063   1.100
 28 A'   29 A'   11 A"   30 A'   12 A"   31 A'   32 A'   13 A"                 
  1.100   1.128   1.325   1.325   1.454   1.454   1.540   1.541
 33 A'   34 A'   14 A"   35 A'   36 A'   15 A"   16 A"   37 A'                 
  1.694   1.694   1.721   1.803   1.803   1.909   1.909   1.909
 17 A"   38 A'   18 A"   19 A"   39 A'   40 A'   20 A"   41 A'                 
  1.956   2.035   2.035   2.201   2.340   2.418   2.418   2.507
 42 A'   43 A'   21 A"   44 A'   45 A'   22 A"   46 A'   23 A"                 
  2.507   2.777   2.821   2.821   2.858   2.858   2.986   2.986
 47 A'   48 A'   24 A"   49 A'   25 A"   50 A'   26 A"   51 A'                 
  3.019   3.135   3.610   4.147   4.147   6.186  12.336  12.336
 52 A'   53 A'   54 A'   55 A'   27 A"   56 A'   28 A"   57 A'                 
 12.360  25.097 143.976
 58 A'   59 A'   60 A'                                                         
 --------------------------------------------------------------
 
          Ground-State Mulliken Net Atomic Charges

     Atom                 Charge (a.u.)
  ----------------------------------------
      1 Si                    0.769408
      2 C                    -0.733118
      3 H                    -0.171729
      4 H                    -0.171729
      5 H                    -0.171725
      6 H                     0.159632
      7 H                     0.159629
      8 H                     0.159632
  ----------------------------------------
  Sum of atomic charges =    -0.000000

 -----------------------------------------------------------------
                    Cartesian Multipole Moments
 -----------------------------------------------------------------
    Charge (ESU x 10^10)
                 0.0000
    Dipole Moment (Debye)
         X      -0.6094      Y       0.0002      Z       0.0000
       Tot       0.6094
    Quadrupole Moments (Debye-Ang)
        XX     -23.8038     XY       0.0003     YY     -23.3893
        XZ      -0.0000     YZ       0.0000     ZZ     -23.3893
    Octopole Moments (Debye-Ang^2)
       XXX      -1.4477    XXY       0.0038    XYY      -3.2715
       YYY      -2.0858    XXZ       0.0000    XYZ       0.0000
       YYZ      -0.0000    XZZ      -3.2717    YZZ       2.1007
       ZZZ       0.0000
    Hexadecapole Moments (Debye-Ang^3)
      XXXX    -178.5049   XXXY       0.0013   XXYY     -39.4829
      XYYY      -0.0128   YYYY     -57.8730   XXXZ      -0.0000
      XXYZ       0.0000   XYYZ       0.0000   YYYZ       0.0000
      XXZZ     -39.4824   XYZZ       0.0175   YYZZ     -19.2924
      XZZZ       0.0000   YZZZ       0.0000   ZZZZ     -57.8758
 -----------------------------------------------------------------
 DrvMan is completing analytic gradient of the MP2 energy
 MP2 relaxed dipole moment
            1
    1  -0.2397694
    2   0.0000894
    3   0.0000000
	Magnitude:	 0.240 au	 0.609 Debye
 MP2 energy read as -330.580697
 Full Analytical Gradient of MP2 Energy (in au.)
             1             2             3             4             5
    1    0.00159956    0.00191021   -0.00099353   -0.00099353   -0.00100101
    2    0.00002563    0.00000750    0.00126838    0.00126838   -0.00256247
    3    0.00000000   -0.00000000    0.00220086   -0.00220086   -0.00000000
             6             7             8
    1   -0.00017415   -0.00017340   -0.00017415
    2    0.00001316   -0.00003373    0.00001316
    3    0.00002739    0.00000000   -0.00002739
 Gradient time:  CPU 0.09 s  wall 0.08 s
 Geometry Optimization Parameters
   NAtoms,    NIC,     NZ,  NCons,   NDum,   NFix, NCnnct, MaxDiis
        8      44       0       0       0       0       0       0

 Cartesian Hessian Update
 Hessian Updated using BFGS Update


** GEOMETRY OPTIMIZATION IN DELOCALIZED INTERNAL COORDINATES **
   Searching for a Minimum

   Optimization Cycle:   4

                       Coordinates (Angstroms)
     ATOM                X               Y               Z
      1  Si        0.6435419365   -0.0001437635    0.0000000000
      2  C        -1.2298535705   -0.0001029418    0.0000000000
      3  H         1.1555398530   -0.6897370359   -1.1942745100
      4  H         1.1555398530   -0.6897370359    1.1942745100
      5  H         1.1556828611    1.3788033004    0.0000000000
      6  H        -1.6244591972    0.5098237102    0.8832983000
      7  H        -1.6243787268   -1.0200642522    0.0000000000
      8  H        -1.6244591972    0.5098237102   -0.8832983000
   Point Group: cs    Number of degrees of freedom:    11


   Energy is   -330.580697277

 Hessian Updated using BFGS Update

 11 Hessian modes will be used to form the next step
  Hessian Eigenvalues:
     0.069853    0.069986    0.159755    0.160000    0.160000    0.160585
     0.224171    0.303638    0.314754    0.347832    0.348512

 Minimum Search - Taking Simple RFO Step
 Searching for Lamda that Minimizes Along All modes
 Value Taken    Lamda =  -0.00011133
 Step Taken.  Stepsize is  0.022538

                             Maximum     Tolerance    Cnvgd?
         Gradient           0.003224      0.000020      NO
         Displacement       0.013512      0.000120      NO
         Energy change     -0.001532      0.000000      NO


 New Cartesian Coordinates Obtained by Inverse Iteration

 Displacement from previous Coordinates is:  0.023381
 ----------------------------------------------------------------
             Standard Nuclear Orientation (Angstroms)
    I     Atom           X                Y                Z
 ----------------------------------------------------------------
    1      Si      0.6437162550    -0.0001733767     0.0000000000
    2      C      -1.2332457910    -0.0001238331     0.0000000000
    3      H       1.1585491422    -0.6926544473    -1.1993470200
    4      H       1.1585491422    -0.6926544473     1.1993470200
    5      H       1.1586617740     1.3846708222     0.0000000000
    6      H      -1.6263664191     0.5100387444     0.8836476322
    7      H      -1.6263438723    -1.0204765151     0.0000000000
    8      H      -1.6263664191     0.5100387444    -0.8836476322
 ----------------------------------------------------------------
 Molecular Point Group                 Cs    NOp =  2
 Largest Abelian Subgroup              Cs    NOp =  2
 Nuclear Repulsion Energy =    62.8450483204 hartrees
 There are       13 alpha and       13 beta electrons
 Applying Cartesian multipole field
    Component          Value
    ---------          -----
     (2,0,0)        1.00000E-11
     (0,2,0)        2.00000E-11
     (0,0,2)       -3.00000E-11
 Nucleus-field energy     =     0.0000000008 hartrees
 Requested basis set is 6-311+G(d,p)
 There are 43 shells and 88 basis functions
 A cutoff of  1.0D-11 yielded    943 shell pairs
 There are      3996 function pairs (      4185 Cartesian)
 Smallest overlap matrix eigenvalue = 1.00E-03
 Guess MOs from SCF MO coefficient file
 Reading MOs from coefficient file
 Reading MOs from coefficient file

 -----------------------------------------------------------------------
  General SCF calculation program by
  Eric Jon Sundstrom, Paul Horn, Yuezhi Mao, Dmitri Zuev, Alec White,
  David Stuck, Shaama M.S., Shane Yost, Joonho Lee, David Small,
  Daniel Levine, Susi Lehtola, Hugh Burton, Evgeny Epifanovsky
 -----------------------------------------------------------------------
 Hartree-Fock
 using 4 threads for integral computing
 -------------------------------------------------------
 OpenMP Integral computing Module                
 Release: version 1.0, May 2013, Q-Chem Inc. Pittsburgh 
 -------------------------------------------------------
 A restricted SCF calculation will be
 performed using DIIS
 SCF converges when DIIS error is below 1.0e-08
 ---------------------------------------
  Cycle       Energy         DIIS error
 ---------------------------------------
    1    -330.3053683394      3.18e-04  
    2    -330.3104675997      3.70e-05  
    3    -330.3104695899      7.83e-06  
    4    -330.3104696837      2.25e-06  
    5    -330.3104696940      7.30e-07  
    6    -330.3104696955      1.89e-07  
    7    -330.3104696956      4.89e-08  
    8    -330.3104696956      1.28e-08  
    9    -330.3104696956      1.59e-09  Convergence criterion met
 ---------------------------------------
 SCF time:   CPU 2.65s  wall 0.00s 
 SCF   energy in the final basis set =     -330.3104696956
 Total energy in the final basis set =     -330.3104696956
 
 Components of the MP2 correlation energy:
        aaaa  correlation energy =        -0.0239548159 au
        abab  correlation energy =        -0.2223776708 au
        bbbb  correlation energy =        -0.0239548159 au
        non-Brillouin singles    =        -0.0000000000 au

 Total  MP2   correlation energy =                    -0.27028730 au
        MP2         total energy =                  -330.58075700 au
  Entering Z-vector solver.
   1         0           1      0.000231    0.000231
   2         0           1      0.000057    0.000057
   3         0           1      0.000009    0.000009
   4         0           1      0.000002    0.000002
   5         1           0      0.000000    0.000000    Roots Converged
 
 --------------------------------------------------------------
             Orbital Energies (a.u.) and Symmetries
 --------------------------------------------------------------
 
 Alpha MOs, Restricted
 -- Occupied --                  
-68.767 -11.210  -6.115  -4.222  -4.222  -4.221  -0.949  -0.701
  1 A'    2 A'    3 A'    1 A"    4 A'    5 A'    6 A'    7 A'                 
 -0.564  -0.564  -0.469  -0.469  -0.456
  2 A"    8 A'    9 A'    3 A"   10 A'                                         
 -- Virtual --                   
  0.058   0.073   0.082   0.082   0.115   0.128   0.128   0.181
 11 A'   12 A'    4 A"   13 A'   14 A'    5 A"   15 A'    6 A"                 
  0.181   0.194   0.206   0.263   0.263   0.279   0.375   0.375
 16 A'   17 A'   18 A'   19 A'    7 A"   20 A'   21 A'    8 A"                 
  0.375   0.447   0.497   0.497   0.581   0.586   0.586   0.621
 22 A'   23 A'    9 A"   24 A'   25 A'   10 A"   26 A'   27 A'                 
  0.716   0.808   0.808   0.845   0.845   0.925   1.062   1.096
 28 A'   29 A'   11 A"   30 A'   12 A"   31 A'   32 A'   13 A"                 
  1.096   1.125   1.324   1.324   1.454   1.454   1.540   1.541
 33 A'   34 A'   14 A"   35 A'   36 A'   15 A"   16 A"   37 A'                 
  1.694   1.694   1.721   1.802   1.802   1.905   1.905   1.906
 17 A"   38 A'   18 A"   19 A"   39 A'   40 A'   20 A"   41 A'                 
  1.954   2.034   2.034   2.195   2.337   2.411   2.411   2.505
 42 A'   43 A'   21 A"   44 A'   45 A'   22 A"   46 A'   23 A"                 
  2.505   2.777   2.820   2.820   2.858   2.858   2.983   2.983
 47 A'   48 A'   49 A'   24 A"   25 A"   50 A'   51 A'   26 A"                 
  3.015   3.135   3.605   4.146   4.146   6.183  12.330  12.330
 52 A'   53 A'   54 A'   55 A'   27 A"   56 A'   28 A"   57 A'                 
 12.356  25.097 143.970
 58 A'   59 A'   60 A'                                                         
 
 Beta MOs, Restricted
 -- Occupied --                  
-68.767 -11.210  -6.115  -4.222  -4.222  -4.221  -0.949  -0.701
  1 A'    2 A'    3 A'    1 A"    4 A'    5 A'    6 A'    7 A'                 
 -0.564  -0.564  -0.469  -0.469  -0.456
  2 A"    8 A'    9 A'    3 A"   10 A'                                         
 -- Virtual --                   
  0.058   0.073   0.082   0.082   0.115   0.128   0.128   0.181
 11 A'   12 A'    4 A"   13 A'   14 A'    5 A"   15 A'    6 A"                 
  0.181   0.194   0.206   0.263   0.263   0.279   0.375   0.375
 16 A'   17 A'   18 A'   19 A'    7 A"   20 A'   21 A'    8 A"                 
  0.375   0.447   0.497   0.497   0.581   0.586   0.586   0.621
 22 A'   23 A'    9 A"   24 A'   25 A'   10 A"   26 A'   27 A'                 
  0.716   0.808   0.808   0.845   0.845   0.925   1.062   1.096
 28 A'   29 A'   11 A"   30 A'   12 A"   31 A'   32 A'   13 A"                 
  1.096   1.125   1.324   1.324   1.454   1.454   1.540   1.541
 33 A'   34 A'   14 A"   35 A'   36 A'   15 A"   16 A"   37 A'                 
  1.694   1.694   1.721   1.802   1.802   1.905   1.905   1.906
 17 A"   38 A'   18 A"   19 A"   39 A'   40 A'   20 A"   41 A'                 
  1.954   2.034   2.034   2.195   2.337   2.411   2.411   2.505
 42 A'   43 A'   21 A"   44 A'   45 A'   22 A"   46 A'   23 A"                 
  2.505   2.777   2.820   2.820   2.858   2.858   2.983   2.983
 47 A'   48 A'   49 A'   24 A"   25 A"   50 A'   51 A'   26 A"                 
  3.015   3.135   3.605   4.146   4.146   6.183  12.330  12.330
 52 A'   53 A'   54 A'   55 A'   27 A"   56 A'   28 A"   57 A'                 
 12.356  25.097 143.970
 58 A'   59 A'   60 A'                                                         
 --------------------------------------------------------------
 
          Ground-State Mulliken Net Atomic Charges

     Atom                 Charge (a.u.)
  ----------------------------------------
      1 Si                    0.764917
      2 C                    -0.731482
      3 H                    -0.170908
      4 H                    -0.170908
      5 H                    -0.170907
      6 H                     0.159763
      7 H                     0.159761
      8 H                     0.159763
  ----------------------------------------
  Sum of atomic charges =     0.000000

 -----------------------------------------------------------------
                    Cartesian Multipole Moments
 -----------------------------------------------------------------
    Charge (ESU x 10^10)
                 0.0000
    Dipole Moment (Debye)
         X      -0.6173      Y       0.0001      Z       0.0000
       Tot       0.6173
    Quadrupole Moments (Debye-Ang)
        XX     -23.8391     XY       0.0001     YY     -23.4197
        XZ      -0.0000     YZ       0.0000     ZZ     -23.4198
    Octopole Moments (Debye-Ang^2)
       XXX      -1.5031    XXY       0.0039    XYY      -3.2974
       YYY      -2.0871    XXZ       0.0000    XYZ       0.0000
       YYZ      -0.0000    XZZ      -3.2973    YZZ       2.1030
       ZZZ      -0.0000
    Hexadecapole Moments (Debye-Ang^3)
      XXXX    -179.3014   XXXY       0.0014   XXYY     -39.6560
      XYYY      -0.0055   YYYY     -58.1914   XXXZ      -0.0000
      XXYZ       0.0000   XYYZ      -0.0000   YYYZ       0.0000
      XXZZ     -39.6557   XYZZ       0.0100   YYZZ     -19.3984
      XZZZ      -0.0000   YZZZ       0.0000   ZZZZ     -58.1934
 -----------------------------------------------------------------
 DrvMan is completing analytic gradient of the MP2 energy
 MP2 relaxed dipole moment
            1
    1  -0.2428630
    2   0.0000347
    3   0.0000000
	Magnitude:	 0.243 au	 0.617 Debye
 MP2 energy read as -330.580757
 Full Analytical Gradient of MP2 Energy (in au.)
             1             2             3             4             5
    1    0.00031539    0.00022058   -0.00009613   -0.00009613   -0.00009759
    2    0.00000701    0.00000157    0.00009791    0.00009791   -0.00020303
    3   -0.00000000    0.00000000    0.00017062   -0.00017062   -0.00000000
             6             7             8
    1   -0.00008256   -0.00008101   -0.00008256
    2    0.00000380   -0.00000897    0.00000380
    3    0.00000751    0.00000000   -0.00000751
 Gradient time:  CPU 0.09 s  wall 0.08 s
 Geometry Optimization Parameters
   NAtoms,    NIC,     NZ,  NCons,   NDum,   NFix, NCnnct, MaxDiis
        8      44       0       0       0       0       0       0

 Cartesian Hessian Update
 Hessian Updated using BFGS Update


** GEOMETRY OPTIMIZATION IN DELOCALIZED INTERNAL COORDINATES **
   Searching for a Minimum

   Optimization Cycle:   5

                       Coordinates (Angstroms)
     ATOM                X               Y               Z
      1  Si        0.6437162550   -0.0001733767    0.0000000000
      2  C        -1.2332457910   -0.0001238331    0.0000000000
      3  H         1.1585491422   -0.6926544473   -1.1993470200
      4  H         1.1585491422   -0.6926544473    1.1993470200
      5  H         1.1586617740    1.3846708222    0.0000000000
      6  H        -1.6263664191    0.5100387444    0.8836476322
      7  H        -1.6263438723   -1.0204765151    0.0000000000
      8  H        -1.6263664191    0.5100387444   -0.8836476322
   Point Group: cs    Number of degrees of freedom:    11


   Energy is   -330.580756998

 Hessian Updated using BFGS Update

 11 Hessian modes will be used to form the next step
  Hessian Eigenvalues:
     0.069852    0.069986    0.154771    0.160000    0.160000    0.160391
     0.214075    0.303637    0.314402    0.347808    0.348464

 Minimum Search - Taking Simple RFO Step
 Searching for Lamda that Minimizes Along All modes
 Value Taken    Lamda =   0.00000000
 Step Taken.  Stepsize is  0.002353

                             Maximum     Tolerance    Cnvgd?
         Gradient           0.000364      0.000020      NO
         Displacement       0.002005      0.000120      NO
         Energy change     -0.000060      0.000000      NO


 New Cartesian Coordinates Obtained by Inverse Iteration

 Displacement from previous Coordinates is:  0.001918
 ----------------------------------------------------------------
             Standard Nuclear Orientation (Angstroms)
    I     Atom           X                Y                Z
 ----------------------------------------------------------------
    1      Si      0.6433628240    -0.0001831185     0.0000000000
    2      C      -1.2336641084    -0.0001302705     0.0000000000
    3      H       1.1586762833    -0.6928688841    -1.1997219319
    4      H       1.1586762833    -0.6928688841     1.1997219319
    5      H       1.1587685667     1.3851090663     0.0000000000
    6      H      -1.6262198271     0.5101150750     0.8837740585
    7      H      -1.6262263829    -1.0206223674     0.0000000000
    8      H      -1.6262198271     0.5101150750    -0.8837740585
 ----------------------------------------------------------------
 Molecular Point Group                 Cs    NOp =  2
 Largest Abelian Subgroup              Cs    NOp =  2
 Nuclear Repulsion Energy =    62.8390183075 hartrees
 There are       13 alpha and       13 beta electrons
 Applying Cartesian multipole field
    Component          Value
    ---------          -----
     (2,0,0)        1.00000E-11
     (0,2,0)        2.00000E-11
     (0,0,2)       -3.00000E-11
 Nucleus-field energy     =     0.0000000008 hartrees
 Requested basis set is 6-311+G(d,p)
 There are 43 shells and 88 basis functions
 A cutoff of  1.0D-11 yielded    943 shell pairs
 There are      3996 function pairs (      4185 Cartesian)
 Smallest overlap matrix eigenvalue = 1.00E-03
 Guess MOs from SCF MO coefficient file
 Reading MOs from coefficient file
 Reading MOs from coefficient file

 -----------------------------------------------------------------------
  General SCF calculation program by
  Eric Jon Sundstrom, Paul Horn, Yuezhi Mao, Dmitri Zuev, Alec White,
  David Stuck, Shaama M.S., Shane Yost, Joonho Lee, David Small,
  Daniel Levine, Susi Lehtola, Hugh Burton, Evgeny Epifanovsky
 -----------------------------------------------------------------------
 Hartree-Fock
 using 4 threads for integral computing
 -------------------------------------------------------
 OpenMP Integral computing Module                
 Release: version 1.0, May 2013, Q-Chem Inc. Pittsburgh 
 -------------------------------------------------------
 A restricted SCF calculation will be
 performed using DIIS
 SCF converges when DIIS error is below 1.0e-08
 ---------------------------------------
  Cycle       Energy         DIIS error
 ---------------------------------------
    1    -330.3101269549      2.96e-05  
    2    -330.3104754296      3.63e-06  
    3    -330.3104754503      9.75e-07  
    4    -330.3104754515      3.02e-07  
    5    -330.3104754517      8.56e-08  
    6    -330.3104754517      2.38e-08  
    7    -330.3104754517      6.53e-09  Convergence criterion met
 ---------------------------------------
 SCF time:   CPU 2.09s  wall 1.00s 
 SCF   energy in the final basis set =     -330.3104754517
 Total energy in the final basis set =     -330.3104754517
 
 Components of the MP2 correlation energy:
        aaaa  correlation energy =        -0.0239541218 au
        abab  correlation energy =        -0.2223738480 au
        bbbb  correlation energy =        -0.0239541218 au
        non-Brillouin singles    =        -0.0000000000 au

 Total  MP2   correlation energy =                    -0.27028209 au
        MP2         total energy =                  -330.58075754 au
  Entering Z-vector solver.
   1         0           1      0.000231    0.000231
   2         0           1      0.000057    0.000057
   3         0           1      0.000009    0.000009
   4         0           1      0.000002    0.000002
   5         1           0      0.000000    0.000000    Roots Converged
 
 --------------------------------------------------------------
             Orbital Energies (a.u.) and Symmetries
 --------------------------------------------------------------
 
 Alpha MOs, Restricted
 -- Occupied --                  
-68.767 -11.210  -6.115  -4.222  -4.222  -4.221  -0.949  -0.701
  1 A'    2 A'    3 A'    1 A"    4 A'    5 A'    6 A'    7 A'                 
 -0.564  -0.564  -0.469  -0.469  -0.456
  2 A"    8 A'    9 A'    3 A"   10 A'                                         
 -- Virtual --                   
  0.058   0.073   0.082   0.082   0.115   0.128   0.128   0.181
 11 A'   12 A'    4 A"   13 A'   14 A'    5 A"   15 A'    6 A"                 
  0.181   0.194   0.206   0.263   0.263   0.279   0.375   0.375
 16 A'   17 A'   18 A'   19 A'    7 A"   20 A'   21 A'    8 A"                 
  0.375   0.447   0.497   0.497   0.581   0.586   0.586   0.621
 22 A'   23 A'    9 A"   24 A'   25 A'   10 A"   26 A'   27 A'                 
  0.716   0.808   0.808   0.845   0.845   0.925   1.062   1.095
 28 A'   29 A'   11 A"   30 A'   12 A"   31 A'   32 A'   13 A"                 
  1.095   1.125   1.324   1.324   1.455   1.455   1.540   1.541
 33 A'   34 A'   14 A"   35 A'   36 A'   15 A"   16 A"   37 A'                 
  1.694   1.694   1.721   1.802   1.802   1.904   1.904   1.906
 17 A"   38 A'   18 A"   19 A"   39 A'   40 A'   20 A"   41 A'                 
  1.954   2.034   2.034   2.195   2.336   2.410   2.410   2.505
 42 A'   43 A'   21 A"   44 A'   45 A'   22 A"   46 A'   23 A"                 
  2.505   2.778   2.820   2.820   2.858   2.858   2.983   2.983
 47 A'   48 A'   49 A'   24 A"   25 A"   50 A'   51 A'   26 A"                 
  3.015   3.135   3.604   4.146   4.146   6.183  12.329  12.329
 52 A'   53 A'   54 A'   55 A'   27 A"   56 A'   28 A"   57 A'                 
 12.356  25.097 143.969
 58 A'   59 A'   60 A'                                                         
 
 Beta MOs, Restricted
 -- Occupied --                  
-68.767 -11.210  -6.115  -4.222  -4.222  -4.221  -0.949  -0.701
  1 A'    2 A'    3 A'    1 A"    4 A'    5 A'    6 A'    7 A'                 
 -0.564  -0.564  -0.469  -0.469  -0.456
  2 A"    8 A'    9 A'    3 A"   10 A'                                         
 -- Virtual --                   
  0.058   0.073   0.082   0.082   0.115   0.128   0.128   0.181
 11 A'   12 A'    4 A"   13 A'   14 A'    5 A"   15 A'    6 A"                 
  0.181   0.194   0.206   0.263   0.263   0.279   0.375   0.375
 16 A'   17 A'   18 A'   19 A'    7 A"   20 A'   21 A'    8 A"                 
  0.375   0.447   0.497   0.497   0.581   0.586   0.586   0.621
 22 A'   23 A'    9 A"   24 A'   25 A'   10 A"   26 A'   27 A'                 
  0.716   0.808   0.808   0.845   0.845   0.925   1.062   1.095
 28 A'   29 A'   11 A"   30 A'   12 A"   31 A'   32 A'   13 A"                 
  1.095   1.125   1.324   1.324   1.455   1.455   1.540   1.541
 33 A'   34 A'   14 A"   35 A'   36 A'   15 A"   16 A"   37 A'                 
  1.694   1.694   1.721   1.802   1.802   1.904   1.904   1.906
 17 A"   38 A'   18 A"   19 A"   39 A'   40 A'   20 A"   41 A'                 
  1.954   2.034   2.034   2.195   2.336   2.410   2.410   2.505
 42 A'   43 A'   21 A"   44 A'   45 A'   22 A"   46 A'   23 A"                 
  2.505   2.778   2.820   2.820   2.858   2.858   2.983   2.983
 47 A'   48 A'   49 A'   24 A"   25 A"   50 A'   51 A'   26 A"                 
  3.015   3.135   3.604   4.146   4.146   6.183  12.329  12.329
 52 A'   53 A'   54 A'   55 A'   27 A"   56 A'   28 A"   57 A'                 
 12.356  25.097 143.969
 58 A'   59 A'   60 A'                                                         
 --------------------------------------------------------------
 
          Ground-State Mulliken Net Atomic Charges

     Atom                 Charge (a.u.)
  ----------------------------------------
      1 Si                    0.764509
      2 C                    -0.731347
      3 H                    -0.170858
      4 H                    -0.170858
      5 H                    -0.170858
      6 H                     0.159804
      7 H                     0.159803
      8 H                     0.159804
  ----------------------------------------
  Sum of atomic charges =     0.000000

 -----------------------------------------------------------------
                    Cartesian Multipole Moments
 -----------------------------------------------------------------
    Charge (ESU x 10^10)
                 0.0000
    Dipole Moment (Debye)
         X      -0.6193      Y       0.0000      Z       0.0000
       Tot       0.6193
    Quadrupole Moments (Debye-Ang)
        XX     -23.8457     XY       0.0001     YY     -23.4215
        XZ      -0.0000     YZ       0.0000     ZZ     -23.4215
    Octopole Moments (Debye-Ang^2)
       XXX      -1.4906    XXY       0.0039    XYY      -3.2975
       YYY      -2.0880    XXZ       0.0000    XYZ      -0.0000
       YYZ       0.0000    XZZ      -3.2974    YZZ       2.1043
       ZZZ       0.0000
    Hexadecapole Moments (Debye-Ang^3)
      XXXX    -179.3506   XXXY       0.0016   XXYY     -39.6631
      XYYY      -0.0042   YYYY     -58.2174   XXXZ      -0.0000
      XXYZ       0.0000   XYYZ      -0.0000   YYYZ       0.0000
      XXZZ     -39.6630   XYZZ       0.0087   YYZZ     -19.4070
      XZZZ      -0.0000   YZZZ       0.0000   ZZZZ     -58.2190
 -----------------------------------------------------------------
 DrvMan is completing analytic gradient of the MP2 energy
 MP2 relaxed dipole moment
            1
    1  -0.2436491
    2   0.0000183
    3   0.0000000
	Magnitude:	 0.244 au	 0.619 Debye
 MP2 energy read as -330.580758
 Full Analytical Gradient of MP2 Energy (in au.)
             1             2             3             4             5
    1    0.00006708    0.00002150   -0.00000869   -0.00000869   -0.00000889
    2    0.00000219    0.00000115    0.00000087    0.00000087   -0.00000409
    3    0.00000000   -0.00000000    0.00000191   -0.00000191   -0.00000000
             6             7             8
    1   -0.00002105   -0.00002021   -0.00002105
    2    0.00000084   -0.00000266    0.00000084
    3    0.00000200    0.00000000   -0.00000200
 Gradient time:  CPU 0.11 s  wall 0.11 s
 Geometry Optimization Parameters
   NAtoms,    NIC,     NZ,  NCons,   NDum,   NFix, NCnnct, MaxDiis
        8      44       0       0       0       0       0       0

 Cartesian Hessian Update
 Hessian Updated using BFGS Update


** GEOMETRY OPTIMIZATION IN DELOCALIZED INTERNAL COORDINATES **
   Searching for a Minimum

   Optimization Cycle:   6

                       Coordinates (Angstroms)
     ATOM                X               Y               Z
      1  Si        0.6433628240   -0.0001831185    0.0000000000
      2  C        -1.2336641084   -0.0001302705    0.0000000000
      3  H         1.1586762833   -0.6928688841   -1.1997219319
      4  H         1.1586762833   -0.6928688841    1.1997219319
      5  H         1.1587685667    1.3851090663    0.0000000000
      6  H        -1.6262198271    0.5101150750    0.8837740585
      7  H        -1.6262263829   -1.0206223674    0.0000000000
      8  H        -1.6262198271    0.5101150750   -0.8837740585
   Point Group: cs    Number of degrees of freedom:    11


   Energy is   -330.580757543

 Hessian Updated using BFGS Update

 11 Hessian modes will be used to form the next step
  Hessian Eigenvalues:
     0.069849    0.069983    0.133068    0.160000    0.160001    0.160654
     0.232327    0.303626    0.307345    0.347116    0.348142

 Minimum Search - Taking Simple RFO Step
 Searching for Lamda that Minimizes Along All modes
 Value Taken    Lamda =   0.00000000
 Step Taken.  Stepsize is  0.000419

                             Maximum     Tolerance    Cnvgd?
         Gradient           0.000053      0.000020      NO
         Displacement       0.000353      0.000120      NO
         Energy change     -0.000001      0.000000      NO


 New Cartesian Coordinates Obtained by Inverse Iteration

 Displacement from previous Coordinates is:  0.000411
 ----------------------------------------------------------------
             Standard Nuclear Orientation (Angstroms)
    I     Atom           X                Y                Z
 ----------------------------------------------------------------
    1      Si      0.6432331250    -0.0001877064     0.0000000000
    2      C      -1.2337236182    -0.0001336790     0.0000000000
    3      H       1.1586600331    -0.6928624890    -1.1997123561
    4      H       1.1586600331    -0.6928624890     1.1997123561
    5      H       1.1587390120     1.3850998890     0.0000000000
    6      H      -1.6261306079     0.5101350351     0.8838053534
    7      H      -1.6261535573    -1.0206579042     0.0000000000
    8      H      -1.6261306079     0.5101350351    -0.8838053534
 ----------------------------------------------------------------
 Molecular Point Group                 Cs    NOp =  2
 Largest Abelian Subgroup              Cs    NOp =  2
 Nuclear Repulsion Energy =    62.8403794421 hartrees
[...]

Order 1, Length 24
    Atom      X          Y          Z
     1   -4.382801649854197e-02   5.928019040451245e-02  -1.329916883570114e-01
     2   -3.415302298312763e-04   4.688445454925542e-04   2.084823994053370e-03
     3   -3.756724650321077e-03   5.360628103201764e-03  -9.198752830561211e-03
     4    4.890047221736946e-02  -6.627948299959335e-02   1.376115667454290e-01
     5   -2.391854433112240e-04   1.043997021029455e-03   1.894442465790865e-03
     6   -1.108813143365979e-03   2.205485618651006e-04   3.094522011452246e-05
     7    3.452338003292274e-05  -7.196238526746765e-05  -1.823540516834425e-04
     8    3.399172451010066e-04  -2.294271875192373e-05   7.506386151945699e-04


     5 Order 1, Length 24
    Atom      X          Y          Z
     1   -4.679039571258257e-02  -4.912313309750447e-02   6.290062684762538e-07
     2   -3.392838057096548e-03  -1.708625618334150e-02  -1.022177433375378e-06
     3    4.096873372958787e-03   4.199529786818697e-03   2.388846819006027e-04
     4    4.096760492415603e-03   4.199759966704344e-03  -2.391854433112240e-04
     5    4.429950726434076e-02   5.646855514278337e-02   0.000000000000000e+00
     6    1.442474483568895e-03   2.969816310668603e-04   2.643544710276684e-04
     7   -5.194865279071410e-03   7.459696868682683e-04   0.000000000000000e+00
     8    1.442676296934599e-03   2.964191555426829e-04  -2.635052224334610e-04

Order 1, Length 24
    Atom      X          Y          Z
     1   -5.061064416387804e-02  -1.672173974905485e-01   0.000000000000000e+00
     2   -3.942311675154848e-04   1.815460368463896e-03   0.000000000000000e+00
     3   -2.307525573703964e-03  -5.501585448684231e-03  -1.043997001994302e-03
     4   -2.307525573439587e-03  -5.501585434260990e-03   1.043997021029455e-03
     5    5.646855514278337e-02   1.758779125440733e-01   0.000000000000000e+00
     6   -6.210871126763125e-04  -1.190877435002759e-04   2.076581116196503e-04
     7    3.938784651647584e-04   7.633430017540684e-04   0.000000000000000e+00
     8   -6.210871291264448e-04  -1.190877173269404e-04  -2.076581722501378e-04

Order 1, Length 24
    Atom      X          Y          Z
     1    0.000000000000000e+00   0.000000000000000e+00  -3.031611969569680e-02
     2    0.000000000000000e+00   0.000000000000000e+00   2.895822880763494e-03
     3   -3.517659760367100e-03  -1.176544687122780e-02   1.894442465790865e-03
     4    3.517659760367100e-03   1.176544687122780e-02   1.894442465790865e-03
     5    0.000000000000000e+00   0.000000000000000e+00   2.281363686091612e-02
     6   -1.143382801009064e-03   3.867603925863807e-05   5.322524436082000e-05
     7    2.801568071229747e-08   0.000000000000000e+00   7.115501065869476e-04
     8    1.143382801009064e-03  -3.867603925863807e-05   5.322524436082000e-05


     6 Order 1, Length 24
    Atom      X          Y          Z
     1   -5.832583213933883e-03   1.143403081769176e-02   1.980398258670403e-02
     2   -7.772752141209721e-02   5.393375527252869e-02   9.341734644480948e-02
     3   -5.194835167515564e-03  -1.962830601011285e-04  -3.399172451010066e-04
     4    1.443109046539530e-03  -6.797604725675364e-04  -1.108813143365979e-03
     5    1.442474483568895e-03  -6.210871126763125e-04  -1.143382801009064e-03
     6    7.871832948235258e-02  -5.129270528696531e-02  -8.884385171535086e-02
     7    3.575412059755000e-03  -6.084765613431240e-03  -1.100970156388425e-02
     8    3.575878495617644e-03  -6.492952709196117e-03  -1.077507422871222e-02

Order 1, Length 24
    Atom      X          Y          Z
     1   -1.160890767091245e-03  -9.344500318613121e-04   6.529968307914309e-04
     2    4.636498090184690e-02  -1.044908969559296e-01  -1.052815602784095e-01
     3   -3.722728652745184e-04   7.251671051486681e-04   2.294271875192373e-05
     4    7.947512662427169e-05  -9.616325205302466e-05   2.205485618651006e-04
     5    2.969816310668603e-04  -1.190877435002759e-04   3.867603925863807e-05
     6   -5.129270528696531e-02   1.109906218324475e-01   1.158373792023031e-01
     7    1.257757134680567e-02  -1.298795762817512e-02  -2.474026260960166e-02
     8   -6.492952709196117e-03   6.913196246367264e-03   1.324990544388391e-02

Order 1, Length 24
    Atom      X          Y          Z
     1   -2.010532266303851e-03   6.527840422446859e-04  -1.812516642237287e-04
     2    8.030783285714353e-02  -1.052799883126884e-01  -2.260627013150166e-01
     3   -6.461814099681744e-04   2.301305696181783e-05   7.506386151945699e-04
     4    3.894514774524090e-04   5.099985958754320e-05   3.094522011452246e-05
     5    2.643544710276684e-04   2.076581116196503e-04   5.322524436082000e-05
     6   -8.884385171535086e-02   1.158373792023031e-01   2.447528263017472e-01
     7   -2.356931457100316e-04   1.759238684137584e-03   2.794997111723259e-04
     8    1.077507422871222e-02  -1.324990544388391e-02  -1.962156628729049e-02


     7 Order 1, Length 24
    Atom      X          Y          Z
     1   -5.832921895043754e-03  -2.286730251027212e-02   1.195008758091088e-08
     2   -7.772328367954334e-02  -1.078660367573131e-01   3.381180281527613e-07
     3    1.443613616628773e-03   1.300550933810647e-03  -3.451176594579550e-05
     4    1.443508231882105e-03   1.300544576921412e-03   3.452338003292274e-05
     5   -5.194865279071410e-03   3.938784651647584e-04   2.801568071229747e-08
     6    3.575412059755000e-03   1.257757134680567e-02  -2.356931457100316e-04
     7    7.871470385904382e-02   1.025831342746298e-01   0.000000000000000e+00
     8    3.575281276062874e-03   1.257759362709980e-02   2.353086056558301e-04

Order 1, Length 24
    Atom      X          Y          Z
     1    2.321276675922179e-03   1.954976388897879e-04   0.000000000000000e+00
     2   -9.272648180065708e-02  -2.868481713865864e-01   0.000000000000000e+00
     3   -3.770429148550847e-04   1.175449936084441e-04   7.196240271635794e-05
     4   -3.770429067475195e-04   1.175450115567134e-04  -7.196238526746765e-05
     5    7.459696868682683e-04   7.633430017540684e-04   0.000000000000000e+00
     6   -6.084765613431240e-03  -1.298795762817512e-02   1.759238684137584e-03
     7    1.025831342746298e-01   3.116331025609212e-01   0.000000000000000e+00
     8   -6.084765641102713e-03  -1.298795761809942e-02  -1.759238726849177e-03

Order 1, Length 24
    Atom      X          Y          Z
     1    0.000000000000000e+00   0.000000000000000e+00  -1.311267660216109e-03
     2    0.000000000000000e+00   0.000000000000000e+00  -4.370867185770748e-02
     3   -1.254031215655431e-04  -9.757328809227993e-05  -1.823540516834425e-04
     4    1.254031215655431e-04   9.757328809227993e-05  -1.823540516834425e-04
     5    0.000000000000000e+00   0.000000000000000e+00   7.115501065869476e-04
     6   -1.100970156388425e-02  -2.474026260960166e-02   2.794997111723259e-04
     7    0.000000000000000e+00   0.000000000000000e+00   4.411314022494840e-02
     8    1.100970156388425e-02   2.474026260960166e-02   2.794997111723259e-04


     8 Order 1, Length 24
    Atom      X          Y          Z
     1   -5.832583225243349e-03   1.143403081393173e-02  -1.980398258670403e-02
     2   -7.772735127387242e-02   5.393375520144063e-02  -9.341734644480948e-02
     3    1.443109046539530e-03  -6.797604725675364e-04   1.108813143365979e-03
     4   -5.194835167515564e-03  -1.962830601011285e-04   3.399172451010066e-04
     5    1.442676296934599e-03  -6.210871291264448e-04   1.143382801009064e-03
     6    3.575878495617644e-03  -6.492952709196117e-03   1.077507422871222e-02
     7    3.575281276062874e-03  -6.084765641102713e-03   1.100970156388425e-02
     8    7.871832948235258e-02  -5.129270528696531e-02   8.884385171535086e-02

Order 1, Length 24
    Atom      X          Y          Z
     1   -1.160890764447473e-03  -9.344500305688017e-04  -6.529968307914309e-04
     2    4.636492072194617e-02  -1.044908968214498e-01   1.052815602784095e-01
     3    7.947512662427169e-05  -9.616325205302466e-05  -2.205485618651006e-04
     4   -3.722728652745184e-04   7.251671051486681e-04  -2.294271875192373e-05
     5    2.964191555426829e-04  -1.190877173269404e-04  -3.867603925863807e-05
     6   -6.492952709196117e-03   6.913196246367264e-03  -1.324990544388391e-02
     7    1.257759362709980e-02  -1.298795761809942e-02   2.474026260960166e-02
     8   -5.129270528696531e-02   1.109906218324475e-01  -1.158373792023031e-01

Order 1, Length 24
    Atom      X          Y          Z
     1    2.010532232404828e-03  -6.527840721486764e-04  -1.812516642237287e-04
     2   -8.030775600277187e-02   1.052799882227415e-01  -2.260627013150166e-01
     3   -3.894514774524090e-04  -5.099985958754320e-05   3.094522011452246e-05
     4    6.461814099681744e-04  -2.301305696181783e-05   7.506386151945699e-04
     5   -2.635052224334610e-04  -2.076581722501378e-04   5.322524436082000e-05
     6   -1.077507422871222e-02   1.324990544388391e-02  -1.962156628729049e-02
     7    2.353086056558301e-04  -1.759238726849177e-03   2.794997111723259e-04
     8    8.884385171535086e-02  -1.158373792023031e-01   2.447528263017472e-01




 # Finishing finite difference calculation for IDERIV #
 ######################################################
 ######################################################
 Requested basis set is 6-311+G(d,p)
 There are 43 shells and 88 basis functions
 **********************************************************************
 **                                                                  **
 **                       VIBRATIONAL ANALYSIS                       **
 **                       --------------------                       **
 **                                                                  **
 **        VIBRATIONAL FREQUENCIES (CM**-1) AND NORMAL MODES         **
 **     FORCE CONSTANTS (mDYN/ANGSTROM) AND REDUCED MASSES (AMU)     **
 **                  INFRARED INTENSITIES (KM/MOL)                   **
 **                                                                  **
 **********************************************************************
 

 Mode:                 1                      2                      3
 Frequency:       199.58                 524.44                 524.44
 Force Cnst:      0.0237                 0.1686                 0.1686
 Red. Mass:       1.0078                 1.0405                 1.0405
 IR Active:          YES                    YES                    YES
 IR Intens:        0.000                 13.613                 13.618
 Raman Active:       YES                    YES                    YES
               X      Y      Z        X      Y      Z        X      Y      Z
 Si         0.000 -0.000  0.000    0.000 -0.023 -0.024    0.000 -0.024  0.023
 C         -0.000 -0.000  0.000   -0.000 -0.011 -0.012   -0.000 -0.012  0.011
 H         -0.000  0.297 -0.171    0.568  0.131  0.137   -0.130  0.147 -0.134
 H          0.000 -0.297 -0.171   -0.172  0.137  0.143    0.557  0.141 -0.127
 H         -0.000  0.000  0.342   -0.397  0.129  0.146   -0.427  0.138 -0.136
 H         -0.000  0.403 -0.232    0.421  0.115  0.112   -0.096  0.149 -0.127
 H         -0.000  0.000  0.465   -0.294  0.108  0.144   -0.317  0.116 -0.134
 H          0.000 -0.403 -0.232   -0.127  0.140  0.135    0.413  0.126 -0.102
 TransDip   0.000 -0.000  0.000    0.000 -0.080 -0.087    0.000 -0.087  0.080

 Mode:                 4                      5                      6
 Frequency:       717.97                 905.86                 905.86
 Force Cnst:      1.1500                 0.6350                 0.6350
 Red. Mass:       3.7866                 1.3134                 1.3134
 IR Active:          YES                    YES                    YES
 IR Intens:       11.743                 63.526                 63.527
 Raman Active:       YES                    YES                    YES
               X      Y      Z        X      Y      Z        X      Y      Z
 Si        -0.196 -0.000  0.000    0.000 -0.051  0.024    0.000  0.024  0.051
 C          0.398  0.000 -0.000   -0.000  0.128 -0.060   -0.000 -0.060 -0.128
 H         -0.231 -0.008 -0.014    0.038  0.126 -0.061   -0.436 -0.048 -0.107
 H         -0.231 -0.008  0.014    0.359  0.117 -0.043    0.251 -0.066 -0.115
 H         -0.231  0.016  0.000   -0.397  0.106 -0.059    0.186 -0.049 -0.127
 H          0.463  0.007  0.013   -0.052 -0.196  0.103    0.602  0.037  0.102
 H          0.463 -0.015  0.000    0.547 -0.097  0.094   -0.256  0.045  0.201
 H          0.463  0.007 -0.013   -0.496 -0.154  0.012   -0.346  0.127  0.144
 TransDip  -0.110 -0.000 -0.000   -0.000 -0.231  0.108    0.000  0.108  0.231

 Mode:                 7                      8                      9
 Frequency:       988.35                1004.45                1004.45
 Force Cnst:      0.6386                 0.6169                 0.6169
 Red. Mass:       1.1096                 1.0378                 1.0378
 IR Active:          YES                    YES                    YES
 IR Intens:      284.115                 70.227                 70.213
 Raman Active:       YES                    YES                    YES
               X      Y      Z        X      Y      Z        X      Y      Z
 Si        -0.061 -0.000  0.000    0.000 -0.033  0.001   -0.000 -0.001 -0.033
 C          0.000  0.000 -0.000   -0.000 -0.002  0.000   -0.000 -0.000 -0.002
 H          0.535  0.106  0.183   -0.129  0.550 -0.383   -0.235 -0.369  0.094
 H          0.535  0.106 -0.183   -0.139  0.534  0.378    0.229  0.392  0.111
 H          0.535 -0.211 -0.000    0.268 -0.117 -0.016    0.006 -0.003  0.761
 H          0.032  0.005  0.008    0.009 -0.010  0.007    0.016  0.007 -0.001
 H          0.032 -0.009  0.000   -0.018  0.003  0.000   -0.000  0.000 -0.014
 H          0.032  0.005 -0.008    0.009 -0.009 -0.007   -0.015 -0.007 -0.001
 TransDip  -0.540 -0.000 -0.000    0.000 -0.268  0.006   -0.000 -0.006 -0.268

 Mode:                10                     11                     12
 Frequency:      1319.95                1472.87                1472.87
 Force Cnst:      1.2797                 1.3412                 1.3412
 Red. Mass:       1.2467                 1.0493                 1.0493
 IR Active:          YES                    YES                    YES
 IR Intens:       21.251                  4.309                  4.309
 Raman Active:       YES                    YES                    YES
               X      Y      Z        X      Y      Z        X      Y      Z
 Si         0.009 -0.000 -0.000   -0.000 -0.005 -0.000    0.000  0.000 -0.005
 C         -0.147 -0.000 -0.000    0.000 -0.061 -0.004    0.000  0.004 -0.061
 H         -0.019 -0.008 -0.014    0.008  0.016 -0.007    0.012 -0.009  0.008
 H         -0.019 -0.008  0.014    0.006  0.017  0.008   -0.012  0.007  0.007
 H         -0.019  0.016  0.000   -0.014  0.003  0.001    0.001 -0.000  0.021
 H          0.519  0.119  0.206   -0.181  0.477 -0.383   -0.271 -0.420  0.082
 H          0.519 -0.237  0.000    0.325 -0.167  0.048   -0.022  0.011  0.726
 H          0.519  0.119 -0.206   -0.144  0.528  0.391    0.292  0.353  0.030
 TransDip   0.148 -0.000  0.000    0.000  0.066  0.004   -0.000 -0.004  0.066

 Mode:                13                     14                     15
 Frequency:      2308.22                2308.23                2310.07
 Force Cnst:      3.2988                 3.2988                 3.2047
 Red. Mass:       1.0509                 1.0509                 1.0193
 IR Active:          YES                    YES                    YES
 IR Intens:      159.066                159.068                 69.271
 Raman Active:       YES                    YES                    YES
               X      Y      Z        X      Y      Z        X      Y      Z
 Si         0.000 -0.003 -0.040    0.000 -0.040  0.003   -0.021 -0.000  0.000
 C         -0.000 -0.000 -0.000   -0.000 -0.000  0.000    0.001 -0.000  0.000
 H         -0.258  0.349  0.590   -0.127  0.157  0.300    0.193 -0.272 -0.470
 H          0.238 -0.325  0.545   -0.160  0.202 -0.376    0.193 -0.271  0.470
 H          0.019  0.051 -0.016    0.286  0.760  0.001    0.194  0.546  0.000
 H          0.005 -0.002 -0.004    0.003 -0.002 -0.001   -0.005 -0.001 -0.002
 H         -0.000 -0.000 -0.001   -0.006 -0.005  0.000   -0.005  0.002  0.000
 H         -0.005  0.001 -0.004    0.003 -0.002  0.002   -0.005 -0.001  0.002
 TransDip   0.000 -0.027 -0.403    0.001 -0.403  0.027   -0.267 -0.001  0.000

 Mode:                16                     17                     18
 Frequency:      3081.22                3175.80                3175.81
 Force Cnst:      5.7929                 6.5416                 6.5416
 Red. Mass:       1.0356                 1.1008                 1.1008
 IR Active:          YES                    YES                    YES
 IR Intens:        5.087                  6.972                  6.973
 Raman Active:       YES                    YES                    YES
               X      Y      Z        X      Y      Z        X      Y      Z
 Si         0.001 -0.000 -0.000   -0.000 -0.001 -0.000   -0.000  0.000 -0.001
 C         -0.050 -0.000 -0.000    0.000 -0.092 -0.004    0.000  0.004 -0.092
 H         -0.001 -0.000 -0.000   -0.001  0.002  0.002   -0.002  0.002  0.004
 H         -0.001 -0.000  0.000   -0.001  0.002 -0.001    0.002 -0.002  0.004
 H         -0.001  0.000  0.000    0.002  0.005  0.000   -0.000 -0.000  0.001
 H          0.192 -0.272 -0.471   -0.159  0.189  0.359   -0.250  0.328  0.548
 H          0.192  0.544 -0.000    0.296  0.756 -0.001   -0.012 -0.032 -0.019
 H          0.192 -0.272  0.471   -0.137  0.160 -0.312    0.263 -0.343  0.576
 TransDip  -0.072  0.000 -0.000   -0.000 -0.084 -0.004   -0.000  0.004 -0.084

 STANDARD THERMODYNAMIC QUANTITIES AT   298.15 K  AND     1.00 ATM

   This Molecule has  0 Imaginary Frequencies
   Zero point vibrational energy:       39.171 kcal/mol

   Atom    1 Element Si Has Mass   27.97693
   Atom    2 Element C  Has Mass   12.00000
   Atom    3 Element H  Has Mass    1.00783
   Atom    4 Element H  Has Mass    1.00783
   Atom    5 Element H  Has Mass    1.00783
   Atom    6 Element H  Has Mass    1.00783
   Atom    7 Element H  Has Mass    1.00783
   Atom    8 Element H  Has Mass    1.00783
   Molecular Mass:    46.023910 amu
   Principal axes and moments of inertia in amu*Bohr^2:
                             1           2           3
    Eigenvalues --       31.96540   165.34583   165.34585
          X               1.00000     0.00000     0.00000
          Y              -0.00000     0.00000     1.00000
          Z               0.00000     1.00000    -0.00000
   Rotational Symmetry Number is   1
   The Molecule is an Asymmetric Top
   Translational Enthalpy:        0.889 kcal/mol
   Rotational Enthalpy:           0.889 kcal/mol
   Vibrational Enthalpy:         39.998 kcal/mol
   gas constant (RT):             0.592 kcal/mol
   Translational Entropy:        37.405  cal/mol.K
   Rotational Entropy:           21.396  cal/mol.K
   Vibrational Entropy:           4.229  cal/mol.K

   Total Enthalpy:               42.368 kcal/mol
   Total Entropy:                63.030  cal/mol.K
Archival summary:
1\1\mm2.localdomain\FREQ\MP2\6-311+G**\i116\xuedong\TueMay1409:54:392019TueMay1409:54:392019\0\\#,FREQ,MP2,6-311+G**,\\0,1\Si\H,1,1.4781\H,1,1.4781,2,108.517\H,1,1.4781,2,108.517,3,-117.735,0\C,1,1.87696,2,110.41,3,121.133,0\H,5,1.09338,1,111.033,2,60.0004,0\H,5,1.09338,1,111.033,2,-60.0004,0\H,5,1.09338,1,111.032,2,180,0\\HF=-330.310476\MP2=-330.580757\\@

 Total job time:  106.67s(wall), 307.50s(cpu) 
 Tue May 14 09:54:39 2019

        *************************************************************
        *                                                           *
        *  Thank you very much for using Q-Chem.  Have a nice day.  *
        *                                                           *
        *************************************************************


