
Running Job 1 of 2 21.freq.qcinp
qchem 21.freq.qcinp_13320.0 /scratch/xuedong/qchem13320/ 1
/home/qwang/software/qchem5.1/exe/qcprog.exe_s 21.freq.qcinp_13320.0 /scratch/xuedong/qchem13320/
Check license passed

                  Welcome to Q-Chem
     A Quantum Leap Into The Future Of Chemistry


 Q-Chem 5.1, Q-Chem, Inc., Pleasanton, CA (2018)

 Yihan Shao,  Zhengting Gan,  E. Epifanovsky,  A. T. B. Gilbert,  M. Wormit,  
 J. Kussmann,  A. W. Lange,  A. Behn,  Jia Deng,  Xintian Feng,  D. Ghosh,  
 M. Goldey,  P. R. Horn,  L. D. Jacobson,  I. Kaliman,  T. Kus,  A. Landau,  
 Jie Liu,  E. I. Proynov,  R. M. Richard,  R. P. Steele,  E. J. Sundstrom,  
 H. L. Woodcock III,  P. M. Zimmerman,  D. Zuev,  B. Albrecht,  E. Alguire,  
 S. A. Baeppler,  D. Barton,  Z. Benda,  Y. A. Bernard,  E. J. Berquist,  
 K. B. Bravaya,  H. Burton,  D. Casanova,  Chun-Min Chang,  Yunqing Chen,  
 A. Chien,  K. D. Closser,  M. P. Coons,  S. Coriani,  S. Dasgupta,  
 A. L. Dempwolff,  M. Diedenhofen,  Hainam Do,  R. G. Edgar,  Po-Tung Fang,  
 S. Faraji,  S. Fatehi,  Qingguo Feng,  K. D. Fenk,  J. Fosso-Tande,  
 Qinghui Ge,  A. Ghysels,  G. Gidofalvi,  J. Gomes,  J. Gonthier,  A. Gunina,  
 D. Hait,  M. W. D. Hanson-Heine,  P. H. P. Harbach,  A. W. Hauser,  
 J. E. Herr,  E. G. Hohenstein,  Z. C. Holden,  Kerwin Hui,  B. C. Huynh,  
 T.-C. Jagau,  Hyunjun Ji,  B. Kaduk,  K. Khistyaev,  Jaehoon Kim,  
 P. Klunzinger,  K. Koh,  D. Kosenkov,  L. Koulias,  T. Kowalczyk,  
 C. M. Krauter,  A. Kunitsa,  Ka Un Lao,  A. Laurent,  K. V. Lawler,  
 Joonho Lee,  D. Lefrancois,  S. Lehtola,  D. S. Levine,  Yi-Pei Li,  
 You-Sheng Lin,  Fenglai Liu,  E. Livshits,  A. Luenser,  P. Manohar,  
 E. Mansoor,  S. F. Manzer,  Shan-Ping Mao,  Yuezhi Mao,  N. Mardirossian,  
 A. V. Marenich,  T. Markovich,  L. A. Martinez-Martinez,  S. A. Maurer,  
 N. J. Mayhall,  S. C. McKenzie,  J.-M. Mewes,  A. F. Morrison,  
 J. W. Mullinax,  K. Nanda,  T. S. Nguyen-Beck,  R. Olivares-Amaya,  
 J. A. Parkhill,  T. M. Perrine,  F. Plasser,  P. Pokhilko,  S. Prager,  
 A. Prociuk,  E. Ramos,  D. R. Rehn,  F. Rob,  M. Schneider,  N. Sergueev,  
 S. M. Sharada,  S. Sharma,  D. W. Small,  T. Stauch,  T. Stein,  
 Yu-Chuan Su,  A. J. W. Thom,  A. Tkatchenko,  T. Tsuchimochi,  N. M. Tubman,  
 L. Vogt,  M. L. Vidal,  O. Vydrov,  M. A. Watson,  J. Wenzel,  
 M. de Wergifosse,  T. A. Wesolowski,  A. White,  J. Witte,  A. Yamada,  
 Jun Yang,  K. Yao,  S. Yeganeh,  S. R. Yost,  Zhi-Qiang You,  A. Zech,  
 Igor Ying Zhang,  Xing Zhang,  Yan Zhao,  Ying Zhu,  B. R. Brooks,  
 G. K. L. Chan,  C. J. Cramer,  M. S. Gordon,  W. J. Hehre,  A. Klamt,  
 M. W. Schmidt,  C. D. Sherrill,  D. G. Truhlar,  A. Aspuru-Guzik,  R. Baer,  
 A. T. Bell,  N. A. Besley,  Jeng-Da Chai,  R. A. DiStasio Jr.,  A. Dreuw,  
 B. D. Dunietz,  T. R. Furlani,  Chao-Ping Hsu,  Yousung Jung,  Jing Kong,  
 D. S. Lambrecht,  WanZhen Liang,  C. Ochsenfeld,  V. A. Rassolov,  
 L. V. Slipchenko,  J. E. Subotnik,  T. Van Voorhis,  J. M. Herbert,  
 A. I. Krylov,  P. M. W. Gill,  M. Head-Gordon

 Contributors to earlier versions of Q-Chem not listed above: 
 R. D. Adamson,  B. Austin,  J. Baker,  G. J. O. Beran,  K. Brandhorst,  
 S. T. Brown,  E. F. C. Byrd,  A. K. Chakraborty,  C.-L. Cheng,  
 Siu Hung Chien,  D. M. Chipman,  D. L. Crittenden,  H. Dachsel,  
 R. J. Doerksen,  A. D. Dutoi,  L. Fusti-Molnar,  W. A. Goddard III,  
 A. Golubeva-Zadorozhnaya,  S. R. Gwaltney,  G. Hawkins,  A. Heyden,  
 S. Hirata,  G. Kedziora,  F. J. Keil,  C. Kelley,  Jihan Kim,  R. A. King,  
 R. Z. Khaliullin,  P. P. Korambath,  W. Kurlancheek,  A. M. Lee,  M. S. Lee,  
 S. V. Levchenko,  Ching Yeh Lin,  D. Liotard,  R. C. Lochan,  I. Lotan,  
 P. E. Maslen,  N. Nair,  D. P. O'Neill,  D. Neuhauser,  E. Neuscamman,  
 C. M. Oana,  R. Olson,  B. Peters,  R. Peverati,  P. A. Pieniazek,  
 Y. M. Rhee,  J. Ritchie,  M. A. Rohrdanz,  E. Rosta,  N. J. Russ,  
 H. F. Schaefer III,  N. E. Schultz,  N. Shenvi,  A. C. Simmonett,  A. Sodt,  
 D. Stuck,  K. S. Thanthiriwatte,  V. Vanovschi,  Tao Wang,  A. Warshel,  
 C. F. Williams,  Q. Wu,  X. Xu,  W. Zhang

 Please cite Q-Chem as follows:
 Y. Shao et al., Mol. Phys. 113, 184-215 (2015)
 DOI: 10.1080/00268976.2014.952696

 Q-Chem 5.1.0 for Intel X86 EM64T Linux

 Parts of Q-Chem use Armadillo 8.300.2 (Tropical Shenanigans).
 http://arma.sourceforge.net/

 Q-Chem begins on Fri Jul 10 20:47:11 2020  

Host: 
0

     Scratch files written to /scratch/xuedong/qchem13320//
 May118 |scratch|qcdevops|jenkins|workspace|build_RNUM 6581   
Processing $rem in /home/qwang/software/qchem5.1/config/preferences.
 MEM_TOTAL  2000 
Core orbitals will be frozen

Checking the input file for inconsistencies... 	...done.

--------------------------------------------------------------
User input:
--------------------------------------------------------------
$molecule
0 1
C         3.3367965184   -0.6014202332    0.4060845610
C         2.1519689947    0.1981010373   -0.0976548761
O         2.0506239949    1.4128461140    0.1031484074
N         1.2065612897   -0.5138960729   -0.7749883221
C        -0.0276993677    0.1159746419   -1.2455261659
Si       -1.4397254715   -0.0354147937    0.0253428753
C        -0.8630999722    0.6698857749    1.6716832897
C        -2.9384607911    0.9094105485   -0.6249423596
C        -1.8670624875   -1.8658244735    0.2237157366
H         3.2917475668   -0.6528108300    1.4972044517
H         3.3785156800   -1.6167224489    0.0034063507
H         4.2512447146   -0.0695736940    0.1373012089
H         1.3060880968   -1.5167662423   -0.8552461345
H        -0.2974881792   -0.3246726774   -2.2129445777
H         0.2124843806    1.1688996205   -1.4229959813
H        -0.0456245644    0.0740474676    2.0883370376
H        -1.6767659646    0.6790470203    2.4042696371
H        -0.4891076471    1.6900434164    1.5524637017
H        -3.2678845823    0.5226489226   -1.5945969616
H        -3.7839483463    0.8326048753    0.0660780080
H        -2.7092398961    1.9722883875   -0.7502596025
H        -2.2023299753   -2.3065440309   -0.7207779313
H        -2.6687447316   -2.0055749690    0.9558859878
H        -1.0038512303   -2.4406218329    0.5752785344
$end

$rem
JOBTYPE  =  opt
METHOD  =  MP2
BASIS  =  6-311G+(d,p)
SCF_MAX_CYCLES  =  200
GEOM_OPT_MAX_CYCLES  =  300
GEOM_OPT_TOL_DISPLACEMENT = 120
GEOM_OPT_TOL_ENERGY = 10
GEOM_OPT_TOL_GRADIENT = 20
$end
--------------------------------------------------------------
 ----------------------------------------------------------------
             Standard Nuclear Orientation (Angstroms)
    I     Atom           X                Y                Z
 ----------------------------------------------------------------
    1      C       3.3679113843    -0.5921043742     0.3978454282
    2      C       2.1791456912     0.1604631025    -0.1654327122
    3      O       2.0955288720     1.3914003013    -0.1021855063
    4      N       1.2096199743    -0.6114517633    -0.7343646369
    5      C      -0.0294880186    -0.0229863185    -1.2441313998
    6      Si     -1.4105434829    -0.0100983148     0.0690191257
    7      C      -0.7853179583     0.8703163406     1.6099103277
    8      C      -2.9152817366     0.8742821274    -0.6488996675
    9      C      -1.8517566213    -1.8002354620     0.4850819503
   10      H       3.3498361264    -0.5183805231     1.4884650210
   11      H       3.3889120264    -1.6471004669     0.1127646744
   12      H       4.2807779506    -0.1064233605     0.0484039878
   13      H       1.2966596031    -1.6181659252    -0.7020199663
   14      H      -0.3281331452    -0.5672727625    -2.1482430088
   15      H       0.2170835935     0.9996359099    -1.5462588513
   16      H       0.0361558752     0.3150290658     2.0722159191
   17      H      -1.5801284928     0.9735356894     2.3558600662
   18      H      -0.4038605619     1.8652499583     1.3661839773
   19      H      -3.2730357131     0.3840593326    -1.5599585791
   20      H      -3.7438431901     0.8877901287     0.0663352014
   21      H      -2.6782514019     1.9128719359    -0.9001042870
   22      H      -2.2152792469    -2.3411201231    -0.3946915373
   23      H      -2.6361467605    -1.8451527954     1.2473236711
   24      H      -0.9859851425    -2.3426322184     0.8792489009
 ----------------------------------------------------------------
 Molecular Point Group                 C1    NOp =  1
 Largest Abelian Subgroup              C1    NOp =  1
 Nuclear Repulsion Energy =   559.6708302211 hartrees
 There are       40 alpha and       40 beta electrons
 Requested basis set is 6-311+G(d,p)
 There are 121 shells and 296 basis functions

 Total QAlloc Memory Limit   2000 MB
 Mega-Array Size       188 MB
 MEM_STATIC part       192 MB
 A cutoff of  1.0D-11 yielded   6212 shell pairs
 There are     38257 function pairs (     40615 Cartesian)
 
 -------------------------------------------------------
 OpenMP Integral Computing Module                       
 Release: version 1.0, May 2013, Q-Chem Inc. Pittsburgh 
 -------------------------------------------------------
 Integral Job Info:
 Integral job number is                      11
 Integral operator is                         1
 short-range coefficients                     0
 long-range coefficients              100000000
 Omega coefficients                           0
 if combine SR and LR in K                    0
 Integral screening is                        0
 Integral computing path is                   2
 max size of driver memory is            800000
 size of driver memory is                593474
 size of scratch memory is              4204008
 max col of scratch BK array               1296
 max len of scratch array in speh3          155
 max len of scratch index in speh4           18
 max int batch size is                      520
 min int batch size is                       52
 fixed nKL is                                52
 max L of basis functions is                  2
 order of int derivative is                   0
 number of shells is                        121
 number of basis is                         305
 number of cartesian basis is               305
 number of contracted shell pairs          6212
 number of primitive shell pairs          13883
 maxK2 (contraction) of shell pair           36
 max number of K2 of shell pair               1
 max number of CS2 of shell pair            901
 max number of PS2 of shell pair           1686
 mem total for path MDJ                  550492
 -------------------------------------------------------
 Smallest overlap matrix eigenvalue = 3.24E-05

 Scale SEOQF with 1.000000e-01/1.000000e-01/1.000000e-01

 Standard Electronic Orientation quadrupole field applied
 Nucleus-field energy     =     0.0000000111 hartrees
 Guess from superposition of atomic densities
 Warning:  Energy on first SCF cycle will be non-variational
 SAD guess density has 80.000000 electrons

 -----------------------------------------------------------------------
  General SCF calculation program by
  Eric Jon Sundstrom, Paul Horn, Yuezhi Mao, Dmitri Zuev, Alec White,
  David Stuck, Shaama M.S., Shane Yost, Joonho Lee, David Small,
  Daniel Levine, Susi Lehtola, Hugh Burton, Evgeny Epifanovsky
 -----------------------------------------------------------------------
 Hartree-Fock
 using 4 threads for integral computing
 -------------------------------------------------------
 OpenMP Integral computing Module                
 Release: version 1.0, May 2013, Q-Chem Inc. Pittsburgh 
 -------------------------------------------------------
 A restricted SCF calculation will be
 performed using DIIS
 SCF converges when DIIS error is below 1.0e-08
 ---------------------------------------
  Cycle       Energy         DIIS error
 ---------------------------------------
    1    -656.9398035231      3.69e-02  
    2    -654.1726450407      3.73e-03  
    3    -654.2863829666      2.58e-03  
    4    -654.3394655263      5.22e-04  
    5    -654.3432403701      1.30e-04  
    6    -654.3435204406      3.73e-05  
    7    -654.3435646923      1.83e-05  
    8    -654.3435731977      7.43e-06  
    9    -654.3435748700      2.53e-06  
   10    -654.3435750976      6.42e-07  
   11    -654.3435751112      1.76e-07  
   12    -654.3435751119      4.74e-08  
   13    -654.3435751120      1.47e-08  
   14    -654.3435751120      4.79e-09  Convergence criterion met
 ---------------------------------------
 SCF time:   CPU 126.37s  wall 31.00s 
 SCF   energy in the final basis set =     -654.3435751120
 Total energy in the final basis set =     -654.3435751120
 
 Components of the MP2 correlation energy:
        aaaa  correlation energy =        -0.1671415580 au
        abab  correlation energy =        -1.0504921621 au
        bbbb  correlation energy =        -0.1671415580 au
        non-Brillouin singles    =        -0.0000000000 au

 Total  MP2   correlation energy =                    -1.38477528 au
        MP2         total energy =                  -655.72835039 au
  Entering Z-vector solver.
   1         0           1      0.000243    0.000243
   2         0           1      0.000083    0.000083
   3         0           1      0.000034    0.000034
   4         0           1      0.000009    0.000009
   5         0           1      0.000003    0.000003
   6         1           0      0.000000    0.000000    Roots Converged
 
 --------------------------------------------------------------
 
                    Orbital Energies (a.u.)
 --------------------------------------------------------------
 
 Alpha MOs
 -- Occupied --
-68.755 -20.510 -15.589 -11.352 -11.242 -11.239 -11.203 -11.200
-11.192  -6.102  -4.209  -4.209  -4.209  -1.369  -1.225  -1.016
 -0.969  -0.926  -0.919  -0.914  -0.788  -0.687  -0.651  -0.643
 -0.608  -0.578  -0.572  -0.565  -0.561  -0.553  -0.547  -0.538
 -0.531  -0.527  -0.520  -0.460  -0.432  -0.426  -0.418  -0.363
 -- Virtual --
  0.047   0.062   0.069   0.074   0.088   0.097   0.104   0.113
  0.117   0.122   0.130   0.135   0.146   0.151   0.153   0.159
  0.161   0.169   0.172   0.179   0.186   0.193   0.200   0.208
  0.211   0.216   0.226   0.235   0.246   0.250   0.259   0.271
  0.274   0.279   0.283   0.294   0.308   0.314   0.321   0.328
  0.342   0.345   0.352   0.360   0.363   0.372   0.384   0.392
  0.402   0.410   0.416   0.424   0.431   0.444   0.449   0.459
  0.470   0.476   0.488   0.495   0.513   0.537   0.561   0.574
  0.609   0.620   0.636   0.653   0.658   0.669   0.677   0.687
  0.712   0.718   0.732   0.749   0.771   0.799   0.808   0.824
  0.834   0.839   0.853   0.859   0.875   0.889   0.892   0.901
  0.909   0.918   0.927   0.935   0.938   0.948   0.959   0.986
  0.991   1.010   1.033   1.045   1.087   1.100   1.102   1.114
  1.134   1.138   1.153   1.181   1.197   1.224   1.281   1.299
  1.320   1.328   1.372   1.405   1.423   1.452   1.464   1.477
  1.489   1.501   1.534   1.538   1.571   1.662   1.689   1.706
  1.727   1.729   1.748   1.761   1.775   1.779   1.815   1.818
  1.834   1.836   1.851   1.856   1.867   1.875   1.881   1.895
  1.910   1.917   1.941   1.973   1.975   1.994   2.009   2.029
  2.035   2.048   2.055   2.082   2.096   2.105   2.107   2.114
  2.144   2.160   2.203   2.234   2.273   2.323   2.333   2.370
  2.381   2.429   2.468   2.472   2.488   2.499   2.510   2.522
  2.554   2.571   2.575   2.674   2.737   2.744   2.765   2.792
  2.796   2.807   2.814   2.829   2.834   2.864   2.880   2.898
  2.900   2.905   2.915   2.927   2.937   2.950   2.959   2.965
  2.972   2.977   2.989   2.991   3.022   3.060   3.097   3.173
  3.227   3.250   3.266   3.284   3.309   3.312   3.329   3.350
  3.491   3.505   3.578   3.689   3.714   3.725   3.778   3.819
  3.975   4.031   4.138   4.141   4.158   4.172   4.182   4.189
  4.206   4.222   4.232   4.321   4.423   4.626   5.300   5.439
  5.677   5.814   6.339   6.358  12.431  12.446  12.474  24.983
 25.032  25.115  25.121  25.128  25.148  37.021  51.746 144.104
 --------------------------------------------------------------
 
          Ground-State Mulliken Net Atomic Charges

     Atom                 Charge (a.u.)
  ----------------------------------------
      1 C                    -0.584802
      2 C                     0.182022
      3 O                    -0.336504
      4 N                    -0.164072
      5 C                    -0.626492
      6 Si                    1.277842
      7 C                    -0.813320
      8 C                    -0.787133
      9 C                    -0.857882
     10 H                     0.179801
     11 H                     0.131527
     12 H                     0.180563
     13 H                     0.255782
     14 H                     0.173895
     15 H                     0.218817
     16 H                     0.174940
     17 H                     0.166035
     18 H                     0.205980
     19 H                     0.166392
     20 H                     0.169121
     21 H                     0.174103
     22 H                     0.174008
     23 H                     0.176712
     24 H                     0.162665
  ----------------------------------------
  Sum of atomic charges =     0.000000

 -----------------------------------------------------------------
                    Cartesian Multipole Moments
 -----------------------------------------------------------------
    Charge (ESU x 10^10)
                 0.0000
    Dipole Moment (Debye)
         X      -0.9509      Y      -3.3972      Z      -0.3161
       Tot       3.5419
    Quadrupole Moments (Debye-Ang)
        XX     -65.9751     XY      -7.7976     YY     -69.0635
        XZ       0.5803     YZ       0.7873     ZZ     -65.7062
    Octopole Moments (Debye-Ang^2)
       XXX      21.8778    XXY     -15.7188    XYY      -0.6266
       YYY      -4.7319    XXZ       5.3825    XYZ      -1.6564
       YYZ      -5.0828    XZZ       1.6250    YZZ      -1.2132
       ZZZ      -3.1901
    Hexadecapole Moments (Debye-Ang^3)
      XXXX   -1711.0569   XXXY     -13.3146   XXYY    -400.0682
      XYYY     -29.4111   YYYY    -475.8564   XXXZ     -17.7506
      XXYZ       6.7371   XYYZ      -0.1137   YYYZ       7.8058
      XXZZ    -348.3201   XYZZ       5.3448   YYZZ    -143.3838
      XZZZ       5.1458   YZZZ      -0.8739   ZZZZ    -389.1303
 -----------------------------------------------------------------
 DrvMan is completing analytic gradient of the MP2 energy
 MP2 relaxed dipole moment
            1
    1  -0.3741051
    2  -1.3365441
    3  -0.1243649
	Magnitude:	 1.393 au	 3.542 Debye
 MP2 energy read as -655.728350
 Full Analytical Gradient of MP2 Energy (in au.)
             1             2             3             4             5
    1   -0.00098657   -0.00078773   -0.00018181    0.00118270    0.00033367
    2    0.00048619   -0.00940522    0.01021197    0.00176161    0.00041182
    3   -0.00001769   -0.00176476    0.00090817    0.00045807   -0.00071440
             6             7             8             9            10
    1    0.00223776    0.00029835   -0.00204102   -0.00102786    0.00049540
    2   -0.00071120    0.00138261    0.00112697   -0.00229072   -0.00021017
    3   -0.00067374    0.00224592   -0.00076293    0.00073635   -0.00010888
            11            12            13            14            15
    1    0.00034686   -0.00009862   -0.00085505    0.00030847    0.00085261
    2    0.00005421   -0.00009603   -0.00228080   -0.00005590   -0.00047418
    3    0.00011255    0.00018654   -0.00034622   -0.00032862    0.00015256
            16            17            18            19            20
    1   -0.00048776    0.00050953    0.00012410   -0.00005463    0.00008216
    2    0.00039959    0.00023771   -0.00055347    0.00040680    0.00017351
    3   -0.00007858   -0.00002059    0.00026182    0.00026645   -0.00044619
            21            22            23            24
    1   -0.00031540    0.00022128    0.00030618   -0.00046262
    2   -0.00034795   -0.00004225   -0.00025275    0.00006763
    3   -0.00004197    0.00047922   -0.00030907   -0.00019402
 Gradient time:  CPU 0.19 s  wall 0.13 s
 Geometry Optimization Parameters
   NAtoms,    NIC,     NZ,  NCons,   NDum,   NFix, NCnnct, MaxDiis
       24     165       0       0       0       0       0       0


** GEOMETRY OPTIMIZATION IN DELOCALIZED INTERNAL COORDINATES **
   Searching for a Minimum

   Optimization Cycle:   1

                       Coordinates (Angstroms)
     ATOM                X               Y               Z
      1  C         3.3679113843   -0.5921043742    0.3978454282
      2  C         2.1791456912    0.1604631025   -0.1654327122
      3  O         2.0955288720    1.3914003013   -0.1021855063
      4  N         1.2096199743   -0.6114517633   -0.7343646369
      5  C        -0.0294880186   -0.0229863185   -1.2441313998
      6  Si       -1.4105434829   -0.0100983148    0.0690191257
      7  C        -0.7853179583    0.8703163406    1.6099103277
      8  C        -2.9152817366    0.8742821274   -0.6488996675
      9  C        -1.8517566213   -1.8002354620    0.4850819503
     10  H         3.3498361264   -0.5183805231    1.4884650210
     11  H         3.3889120264   -1.6471004669    0.1127646744
     12  H         4.2807779506   -0.1064233605    0.0484039878
     13  H         1.2966596031   -1.6181659252   -0.7020199663
     14  H        -0.3281331452   -0.5672727625   -2.1482430088
     15  H         0.2170835935    0.9996359099   -1.5462588513
     16  H         0.0361558752    0.3150290658    2.0722159191
     17  H        -1.5801284928    0.9735356894    2.3558600662
     18  H        -0.4038605619    1.8652499583    1.3661839773
     19  H        -3.2730357131    0.3840593326   -1.5599585791
     20  H        -3.7438431901    0.8877901287    0.0663352014
     21  H        -2.6782514019    1.9128719359   -0.9001042870
     22  H        -2.2152792469   -2.3411201231   -0.3946915373
     23  H        -2.6361467605   -1.8451527954    1.2473236711
     24  H        -0.9859851425   -2.3426322184    0.8792489009
   Point Group: c1    Number of degrees of freedom:    66


   Energy is   -655.728350390


 Attempting to Generate Delocalized Internal Coordinates

 66 Hessian modes will be used to form the next step
  Hessian Eigenvalues:
     0.002000    0.002386    0.002757    0.003508    0.007126    0.007259
     0.012499    0.012841    0.020455    0.040798    0.044854    0.048363
     0.049840    0.052057    0.053310    0.053889    0.054183    0.054441
     0.054589    0.055433    0.070129    0.076535    0.094640    0.127919
     0.143550    0.144321    0.159056    0.160000    0.160000    0.160000
     0.160000    0.160000    0.160000    0.160000    0.160000    0.160000
     0.160000    0.160000    0.160000    0.192877    0.201357    0.202928
     0.206155    0.219451    0.220197    0.249992    0.250000    0.308021
     0.340444    0.342361    0.342518    0.342576    0.342768    0.342787
     0.342808    0.342964    0.343027    0.343517    0.344388    0.344601
     0.344641    0.346426    0.365418    0.458076    0.522184    0.888754

 Minimum Search - Taking Simple RFO Step
 Searching for Lamda that Minimizes Along All modes
 Value Taken    Lamda =  -0.00037806
 Step Taken.  Stepsize is  0.088064

                             Maximum     Tolerance    Cnvgd?
         Gradient           0.006283      0.000020      NO
         Displacement       0.055076      0.000120      NO
         Energy change     *********      0.000000      NO


 New Cartesian Coordinates Obtained by Inverse Iteration

 Displacement from previous Coordinates is:  0.173358
 ----------------------------------------------------------------
             Standard Nuclear Orientation (Angstroms)
    I     Atom           X                Y                Z
 ----------------------------------------------------------------
    1      C       3.3652156641    -0.6066342729     0.4020598983
    2      C       2.1825376474     0.1578058942    -0.1591536306
    3      O       2.1077807503     1.3832456281    -0.0967412262
    4      N       1.2067560746    -0.6043910152    -0.7318352596
    5      C      -0.0331529286    -0.0132319847    -1.2413404817
    6      Si     -1.4128317351    -0.0038174168     0.0675457802
    7      C      -0.7892701792     0.8759827752     1.6006814186
    8      C      -2.9178656089     0.8666400310    -0.6471699814
    9      C      -1.8371272163    -1.7905666376     0.4828739684
   10      H       3.3453451238    -0.5303593307     1.4926733371
   11      H       3.3712696342    -1.6621675545     0.1178209727
   12      H       4.2831259941    -0.1313963310     0.0505937796
   13      H       1.2955351467    -1.6084411398    -0.7001929127
   14      H      -0.3345628929    -0.5583993447    -2.1435988456
   15      H       0.2045591141     1.0115667715    -1.5448224944
   16      H       0.0521999003     0.3362534481     2.0473774695
   17      H      -1.5787704963     0.9519875228     2.3562951087
   18      H      -0.4374657150     1.8831889881     1.3591895791
   19      H      -3.2723248500     0.3714090696    -1.5575240843
   20      H      -3.7448569002     0.8737579016     0.0707997423
   21      H      -2.6866529717     1.9070979088    -0.8986721881
   22      H      -2.2041164010    -2.3314064969    -0.3963257989
   23      H      -2.6165756866    -1.8393506573     1.2508671588
   24      H      -0.9641718432    -2.3272642727     0.8709667887
 ----------------------------------------------------------------
 Molecular Point Group                 C1    NOp =  1
 Largest Abelian Subgroup              C1    NOp =  1
 Nuclear Repulsion Energy =   560.4701287703 hartrees
 There are       40 alpha and       40 beta electrons
 Applying Cartesian multipole field
    Component          Value
    ---------          -----
     (2,0,0)        1.00000E-11
     (0,2,0)        2.00000E-11
     (0,0,2)       -3.00000E-11
 Nucleus-field energy     =     0.0000000111 hartrees
 Requested basis set is 6-311+G(d,p)
 There are 121 shells and 296 basis functions
 A cutoff of  1.0D-11 yielded   6219 shell pairs
 There are     38316 function pairs (     40674 Cartesian)
 Smallest overlap matrix eigenvalue = 3.27E-05
 Guess MOs from SCF MO coefficient file
 Reading MOs from coefficient file
 Reading MOs from coefficient file

 -----------------------------------------------------------------------
  General SCF calculation program by
  Eric Jon Sundstrom, Paul Horn, Yuezhi Mao, Dmitri Zuev, Alec White,
  David Stuck, Shaama M.S., Shane Yost, Joonho Lee, David Small,
  Daniel Levine, Susi Lehtola, Hugh Burton, Evgeny Epifanovsky
 -----------------------------------------------------------------------
 Hartree-Fock
 using 4 threads for integral computing
 -------------------------------------------------------
 OpenMP Integral computing Module                
 Release: version 1.0, May 2013, Q-Chem Inc. Pittsburgh 
 -------------------------------------------------------
 A restricted SCF calculation will be
 performed using DIIS
 SCF converges when DIIS error is below 1.0e-08
 ---------------------------------------
  Cycle       Energy         DIIS error
 ---------------------------------------
    1    -654.3512308565      3.00e-04  
    2    -654.3441602541      4.74e-05  
    3    -654.3441992281      1.73e-05  
    4    -654.3442040905      6.79e-06  
    5    -654.3442049977      1.73e-06  
    6    -654.3442050601      7.76e-07  
    7    -654.3442050718      2.79e-07  
    8    -654.3442050746      1.54e-07  
    9    -654.3442050752      5.00e-08  
   10    -654.3442050753      1.23e-08  
   11    -654.3442050753      4.14e-09  Convergence criterion met
 ---------------------------------------
 SCF time:   CPU 104.62s  wall 26.00s 
 SCF   energy in the final basis set =     -654.3442050753
 Total energy in the final basis set =     -654.3442050753
 
 Components of the MP2 correlation energy:
        aaaa  correlation energy =        -0.1671181187 au
        abab  correlation energy =        -1.0501102632 au
        bbbb  correlation energy =        -0.1671181187 au
        non-Brillouin singles    =        -0.0000000000 au

 Total  MP2   correlation energy =                    -1.38434650 au
        MP2         total energy =                  -655.72855158 au
  Entering Z-vector solver.
   1         0           1      0.000241    0.000241
   2         0           1      0.000082    0.000082
   3         0           1      0.000033    0.000033
   4         0           1      0.000008    0.000008
   5         0           1      0.000003    0.000003
   6         1           0      0.000000    0.000000    Roots Converged
 
 --------------------------------------------------------------
 
                    Orbital Energies (a.u.)
 --------------------------------------------------------------
 
 Alpha MOs
 -- Occupied --
-68.753 -20.510 -15.588 -11.350 -11.241 -11.239 -11.203 -11.200
-11.191  -6.100  -4.207  -4.207  -4.207  -1.372  -1.225  -1.015
 -0.970  -0.926  -0.919  -0.914  -0.787  -0.687  -0.651  -0.643
 -0.609  -0.579  -0.573  -0.566  -0.561  -0.553  -0.547  -0.539
 -0.531  -0.527  -0.520  -0.461  -0.433  -0.427  -0.418  -0.363
 -- Virtual --
  0.047   0.062   0.069   0.074   0.088   0.097   0.105   0.113
  0.117   0.123   0.130   0.135   0.146   0.151   0.153   0.159
  0.161   0.169   0.172   0.180   0.186   0.193   0.199   0.208
  0.211   0.216   0.226   0.237   0.246   0.251   0.260   0.272
  0.275   0.280   0.284   0.294   0.308   0.314   0.320   0.328
  0.343   0.346   0.352   0.360   0.363   0.374   0.385   0.393
  0.402   0.410   0.417   0.424   0.432   0.444   0.449   0.459
  0.471   0.477   0.488   0.496   0.513   0.537   0.561   0.575
  0.611   0.620   0.636   0.652   0.658   0.668   0.677   0.687
  0.712   0.719   0.732   0.749   0.771   0.801   0.809   0.824
  0.834   0.839   0.854   0.858   0.874   0.888   0.893   0.903
  0.908   0.919   0.927   0.934   0.937   0.950   0.959   0.986
  0.990   1.010   1.036   1.045   1.090   1.103   1.105   1.117
  1.138   1.141   1.156   1.182   1.199   1.227   1.281   1.300
  1.321   1.329   1.374   1.407   1.423   1.451   1.466   1.478
  1.491   1.500   1.536   1.539   1.571   1.659   1.690   1.705
  1.725   1.728   1.750   1.761   1.775   1.779   1.816   1.817
  1.835   1.836   1.851   1.856   1.866   1.876   1.883   1.894
  1.911   1.916   1.941   1.973   1.976   1.995   2.010   2.028
  2.038   2.048   2.055   2.086   2.100   2.108   2.111   2.116
  2.146   2.161   2.205   2.233   2.276   2.324   2.334   2.368
  2.379   2.427   2.469   2.470   2.488   2.498   2.510   2.522
  2.555   2.572   2.576   2.675   2.737   2.745   2.766   2.792
  2.796   2.807   2.814   2.828   2.835   2.864   2.881   2.897
  2.900   2.906   2.915   2.926   2.936   2.952   2.961   2.966
  2.973   2.978   2.989   2.993   3.023   3.062   3.098   3.175
  3.229   3.252   3.264   3.287   3.314   3.316   3.332   3.352
  3.495   3.508   3.578   3.693   3.720   3.731   3.785   3.828
  3.981   4.035   4.136   4.139   4.156   4.171   4.182   4.189
  4.204   4.222   4.230   4.321   4.425   4.624   5.304   5.442
  5.678   5.815   6.346   6.362  12.435  12.452  12.479  24.992
 25.031  25.115  25.120  25.127  25.147  37.024  51.750 144.114
 --------------------------------------------------------------
 
          Ground-State Mulliken Net Atomic Charges

     Atom                 Charge (a.u.)
  ----------------------------------------
      1 C                    -0.583524
      2 C                     0.184159
      3 O                    -0.335955
      4 N                    -0.165036
      5 C                    -0.634037
      6 Si                    1.285094
      7 C                    -0.815611
      8 C                    -0.785775
      9 C                    -0.859173
     10 H                     0.179670
     11 H                     0.131216
     12 H                     0.180560
     13 H                     0.254032
     14 H                     0.174320
     15 H                     0.218599
     16 H                     0.176330
     17 H                     0.165907
     18 H                     0.204678
     19 H                     0.166749
     20 H                     0.169663
     21 H                     0.174322
     22 H                     0.174123
     23 H                     0.176648
     24 H                     0.163040
  ----------------------------------------
  Sum of atomic charges =     0.000000

 -----------------------------------------------------------------
                    Cartesian Multipole Moments
 -----------------------------------------------------------------
    Charge (ESU x 10^10)
                 0.0000
    Dipole Moment (Debye)
         X      -0.9981      Y      -3.3529      Z      -0.3160
       Tot       3.5126
    Quadrupole Moments (Debye-Ang)
        XX     -65.9770     XY      -7.8072     YY     -69.0386
        XZ       0.5871     YZ       0.7354     ZZ     -65.7054
    Octopole Moments (Debye-Ang^2)
       XXX      21.4129    XXY     -15.8883    XYY      -0.7408
       YYY      -4.4880    XXZ       5.2886    XYZ      -1.6846
       YYZ      -5.2233    XZZ       1.5046    YZZ      -1.2891
       ZZZ      -3.2687
    Hexadecapole Moments (Debye-Ang^3)
      XXXX   -1711.1284   XXXY     -11.2717   XXYY    -399.8220
      XYYY     -27.1415   YYYY    -473.4860   XXXZ     -19.4070
      XXYZ       6.6815   XYYZ      -0.4371   YYYZ       7.6433
      XXZZ    -347.7806   XYZZ       6.2376   YYZZ    -142.8259
      XZZZ       4.0174   YZZZ      -1.0476   ZZZZ    -387.2029
 -----------------------------------------------------------------
 DrvMan is completing analytic gradient of the MP2 energy
 MP2 relaxed dipole moment
            1
    1  -0.3926849
    2  -1.3191460
    3  -0.1243117
	Magnitude:	 1.382 au	 3.513 Debye
 MP2 energy read as -655.728552
 Full Analytical Gradient of MP2 Energy (in au.)
             1             2             3             4             5
    1   -0.00035711   -0.00024837   -0.00017226    0.00125819   -0.00060398
    2    0.00067199   -0.00338083    0.00162720    0.00053608    0.00039199
    3   -0.00015235    0.00007384   -0.00020372    0.00059196   -0.00037373
             6             7             8             9            10
    1    0.00039577   -0.00023194   -0.00024959   -0.00011894    0.00007673
    2   -0.00005206    0.00016354    0.00000097   -0.00008222   -0.00004081
    3   -0.00015516    0.00019956    0.00007378    0.00006549    0.00001044
            11            12            13            14            15
    1   -0.00000890    0.00013215   -0.00001281   -0.00004260   -0.00026077
    2   -0.00002437    0.00002587    0.00012114    0.00003036    0.00011673
    3   -0.00006815    0.00004573    0.00007024    0.00005681    0.00007053
            16            17            18            19            20
    1    0.00004027   -0.00000954    0.00011736    0.00001984    0.00000495
    2   -0.00015006   -0.00000040   -0.00008244   -0.00002904   -0.00001225
    3    0.00009684   -0.00010850   -0.00020216   -0.00005283    0.00002083
            21            22            23            24
    1    0.00010734    0.00004502    0.00002776    0.00009144
    2    0.00001958    0.00003444    0.00013298   -0.00001840
    3    0.00000117   -0.00005189   -0.00002238    0.00001367
 Gradient time:  CPU 0.19 s  wall 0.12 s
 Geometry Optimization Parameters
   NAtoms,    NIC,     NZ,  NCons,   NDum,   NFix, NCnnct, MaxDiis
       24     165       0       0       0       0       0       0

 Cartesian Hessian Update
 Hessian Updated using BFGS Update


** GEOMETRY OPTIMIZATION IN DELOCALIZED INTERNAL COORDINATES **
   Searching for a Minimum

   Optimization Cycle:   2

                       Coordinates (Angstroms)
     ATOM                X               Y               Z
      1  C         3.3652156641   -0.6066342729    0.4020598983
      2  C         2.1825376474    0.1578058942   -0.1591536306
      3  O         2.1077807503    1.3832456281   -0.0967412262
      4  N         1.2067560746   -0.6043910152   -0.7318352596
      5  C        -0.0331529286   -0.0132319847   -1.2413404817
      6  Si       -1.4128317351   -0.0038174168    0.0675457802
      7  C        -0.7892701792    0.8759827752    1.6006814186
      8  C        -2.9178656089    0.8666400310   -0.6471699814
      9  C        -1.8371272163   -1.7905666376    0.4828739684
     10  H         3.3453451238   -0.5303593307    1.4926733371
     11  H         3.3712696342   -1.6621675545    0.1178209727
     12  H         4.2831259941   -0.1313963310    0.0505937796
     13  H         1.2955351467   -1.6084411398   -0.7001929127
     14  H        -0.3345628929   -0.5583993447   -2.1435988456
     15  H         0.2045591141    1.0115667715   -1.5448224944
     16  H         0.0521999003    0.3362534481    2.0473774695
     17  H        -1.5787704963    0.9519875228    2.3562951087
     18  H        -0.4374657150    1.8831889881    1.3591895791
     19  H        -3.2723248500    0.3714090696   -1.5575240843
     20  H        -3.7448569002    0.8737579016    0.0707997423
     21  H        -2.6866529717    1.9070979088   -0.8986721881
     22  H        -2.2041164010   -2.3314064969   -0.3963257989
     23  H        -2.6165756866   -1.8393506573    1.2508671588
     24  H        -0.9641718432   -2.3272642727    0.8709667887
   Point Group: c1    Number of degrees of freedom:    66


   Energy is   -655.728551576

 Hessian Updated using BFGS Update

 56 Hessian modes will be used to form the next step
  Hessian Eigenvalues:
     0.001998    0.002382    0.002757    0.003256    0.007100    0.007254
     0.012590    0.012842    0.020455    0.040864    0.044745    0.048083
     0.049791    0.052177    0.053309    0.053862    0.054183    0.054441
     0.054569    0.055387    0.070097    0.076547    0.096319    0.128326
     0.143545    0.144135    0.157539    0.159563    0.162820    0.193743
     0.201435    0.202212    0.206832    0.219087    0.219918    0.249184
     0.260409    0.308224    0.340486    0.342312    0.342447    0.342598
     0.342726    0.342795    0.342840    0.342995    0.343082    0.344091
     0.344398    0.344586    0.344780    0.346630    0.375501    0.460417
     0.522246    0.824774

 Minimum Search - Taking Simple RFO Step
 Searching for Lamda that Minimizes Along All modes
 Value Taken    Lamda =  -0.00003917
 Step Taken.  Stepsize is  0.074646

                             Maximum     Tolerance    Cnvgd?
         Gradient           0.001350      0.000020      NO
         Displacement       0.047493      0.000120      NO
         Energy change     -0.000201      0.000000      NO


 New Cartesian Coordinates Obtained by Inverse Iteration

 Displacement from previous Coordinates is:  0.107536
 ----------------------------------------------------------------
             Standard Nuclear Orientation (Angstroms)
    I     Atom           X                Y                Z
 ----------------------------------------------------------------
    1      C       3.3601174265    -0.6135061811     0.4048960663
    2      C       2.1827942956     0.1587482841    -0.1594502495
    3      O       2.1081319429     1.3819731992    -0.0860465923
    4      N       1.2060980095    -0.6020067148    -0.7355990420
    5      C      -0.0330384057    -0.0104670312    -1.2430798645
    6      Si     -1.4123242000    -0.0012762235     0.0667849558
    7      C      -0.7881020420     0.8809450323     1.5976705272
    8      C      -2.9192612102     0.8643587429    -0.6474183131
    9      C      -1.8310358911    -1.7884171293     0.4839125206
   10      H       3.3353753552    -0.5385569387     1.4955095863
   11      H       3.3618579885    -1.6685844509     0.1191330366
   12      H       4.2813542288    -0.1420156692     0.0575681861
   13      H       1.2959406866    -1.6059898126    -0.7080021499
   14      H      -0.3349956808    -0.5551271178    -2.1455254060
   15      H       0.2065321151     1.0138325214    -1.5467385864
   16      H       0.0693761954     0.3556878749     2.0305961801
   17      H      -1.5698815049     0.9357866171     2.3633152386
   18      H      -0.4601623656     1.8972305239     1.3603651460
   19      H      -3.2738288019     0.3665819316    -1.5563089429
   20      H      -3.7453611852     0.8703839938     0.0716412078
   21      H      -2.6916303609     1.9051160710    -0.9008879677
   22      H      -2.2004218046    -2.3303552224    -0.3936628938
   23      H      -2.6074623841    -1.8397137598     1.2549843101
   24      H      -0.9554927825    -2.3231190564     0.8687111452
 ----------------------------------------------------------------
 Molecular Point Group                 C1    NOp =  1
 Largest Abelian Subgroup              C1    NOp =  1
 Nuclear Repulsion Energy =   560.6104816044 hartrees
 There are       40 alpha and       40 beta electrons
 Applying Cartesian multipole field
    Component          Value
    ---------          -----
     (2,0,0)        1.00000E-11
     (0,2,0)        2.00000E-11
     (0,0,2)       -3.00000E-11
 Nucleus-field energy     =     0.0000000111 hartrees
 Requested basis set is 6-311+G(d,p)
 There are 121 shells and 296 basis functions
 A cutoff of  1.0D-11 yielded   6221 shell pairs
 There are     38310 function pairs (     40668 Cartesian)
 Smallest overlap matrix eigenvalue = 3.31E-05
 Guess MOs from SCF MO coefficient file
 Reading MOs from coefficient file
 Reading MOs from coefficient file

 -----------------------------------------------------------------------
  General SCF calculation program by
  Eric Jon Sundstrom, Paul Horn, Yuezhi Mao, Dmitri Zuev, Alec White,
  David Stuck, Shaama M.S., Shane Yost, Joonho Lee, David Small,
  Daniel Levine, Susi Lehtola, Hugh Burton, Evgeny Epifanovsky
 -----------------------------------------------------------------------
 Hartree-Fock
 using 4 threads for integral computing
 -------------------------------------------------------
 OpenMP Integral computing Module                
 Release: version 1.0, May 2013, Q-Chem Inc. Pittsburgh 
 -------------------------------------------------------
 A restricted SCF calculation will be
 performed using DIIS
 SCF converges when DIIS error is below 1.0e-08
 ---------------------------------------
  Cycle       Energy         DIIS error
 ---------------------------------------
    1    -654.3448106979      1.77e-04  
    2    -654.3442251240      3.31e-05  
    3    -654.3442471954      1.37e-05  
    4    -654.3442497711      7.40e-06  
    5    -654.3442504697      1.12e-06  
    6    -654.3442505047      4.64e-07  
    7    -654.3442505106      2.00e-07  
    8    -654.3442505119      7.22e-08  
    9    -654.3442505121      2.42e-08  
   10    -654.3442505121      8.15e-09  Convergence criterion met
 ---------------------------------------
 SCF time:   CPU 95.04s  wall 24.00s 
 SCF   energy in the final basis set =     -654.3442505121
 Total energy in the final basis set =     -654.3442505121
 
 Components of the MP2 correlation energy:
        aaaa  correlation energy =        -0.1671178226 au
        abab  correlation energy =        -1.0500850970 au
        bbbb  correlation energy =        -0.1671178226 au
        non-Brillouin singles    =        -0.0000000000 au

 Total  MP2   correlation energy =                    -1.38432074 au
        MP2         total energy =                  -655.72857125 au
  Entering Z-vector solver.
   1         0           1      0.000240    0.000240
   2         0           1      0.000082    0.000082
   3         0           1      0.000033    0.000033
   4         0           1      0.000008    0.000008
   5         0           1      0.000003    0.000003
   6         1           0      0.000000    0.000000    Roots Converged
 
 --------------------------------------------------------------
 
                    Orbital Energies (a.u.)
 --------------------------------------------------------------
 
 Alpha MOs
 -- Occupied --
-68.753 -20.511 -15.587 -11.350 -11.241 -11.239 -11.203 -11.200
-11.191  -6.100  -4.207  -4.207  -4.207  -1.373  -1.225  -1.015
 -0.970  -0.926  -0.919  -0.914  -0.787  -0.687  -0.651  -0.643
 -0.609  -0.580  -0.573  -0.566  -0.561  -0.553  -0.547  -0.539
 -0.531  -0.527  -0.520  -0.461  -0.433  -0.427  -0.418  -0.363
 -- Virtual --
  0.047   0.062   0.069   0.074   0.088   0.097   0.105   0.113
  0.117   0.123   0.130   0.135   0.146   0.151   0.153   0.159
  0.161   0.169   0.171   0.181   0.186   0.193   0.199   0.208
  0.211   0.216   0.227   0.237   0.245   0.251   0.260   0.272
  0.275   0.280   0.284   0.293   0.308   0.314   0.320   0.328
  0.343   0.346   0.352   0.361   0.363   0.374   0.385   0.393
  0.403   0.410   0.417   0.424   0.432   0.443   0.448   0.460
  0.471   0.477   0.488   0.496   0.514   0.536   0.561   0.575
  0.611   0.620   0.636   0.652   0.658   0.669   0.677   0.687
  0.712   0.720   0.732   0.749   0.771   0.801   0.809   0.824
  0.834   0.839   0.854   0.859   0.875   0.888   0.893   0.903
  0.908   0.920   0.927   0.934   0.937   0.951   0.959   0.987
  0.990   1.010   1.036   1.045   1.090   1.103   1.105   1.117
  1.138   1.141   1.156   1.183   1.200   1.228   1.279   1.300
  1.321   1.328   1.373   1.407   1.423   1.450   1.467   1.478
  1.491   1.500   1.536   1.539   1.571   1.658   1.690   1.705
  1.725   1.728   1.750   1.762   1.774   1.779   1.816   1.817
  1.835   1.836   1.851   1.856   1.866   1.877   1.883   1.894
  1.911   1.916   1.941   1.974   1.977   1.995   2.009   2.027
  2.039   2.048   2.054   2.086   2.101   2.108   2.112   2.117
  2.146   2.160   2.204   2.232   2.276   2.324   2.334   2.368
  2.379   2.426   2.468   2.471   2.488   2.498   2.510   2.523
  2.556   2.572   2.577   2.676   2.736   2.745   2.766   2.792
  2.796   2.807   2.814   2.828   2.835   2.865   2.881   2.897
  2.900   2.906   2.915   2.926   2.936   2.953   2.961   2.967
  2.973   2.979   2.990   2.993   3.022   3.063   3.098   3.176
  3.229   3.252   3.262   3.287   3.315   3.316   3.332   3.353
  3.495   3.508   3.578   3.693   3.721   3.732   3.787   3.830
  3.982   4.036   4.137   4.139   4.156   4.172   4.183   4.189
  4.204   4.221   4.230   4.320   4.426   4.623   5.306   5.441
  5.678   5.815   6.347   6.362  12.435  12.452  12.479  24.993
 25.032  25.115  25.120  25.127  25.148  37.024  51.751 144.115
 --------------------------------------------------------------
 
          Ground-State Mulliken Net Atomic Charges

     Atom                 Charge (a.u.)
  ----------------------------------------
      1 C                    -0.581053
      2 C                     0.179369
      3 O                    -0.333774
      4 N                    -0.165213
      5 C                    -0.634704
      6 Si                    1.288664
      7 C                    -0.816590
      8 C                    -0.784813
      9 C                    -0.860455
     10 H                     0.179757
     11 H                     0.131035
     12 H                     0.180200
     13 H                     0.253959
     14 H                     0.174175
     15 H                     0.217907
     16 H                     0.177298
     17 H                     0.165627
     18 H                     0.203689
     19 H                     0.166703
     20 H                     0.169789
     21 H                     0.174368
     22 H                     0.174150
     23 H                     0.176654
     24 H                     0.163258
  ----------------------------------------
  Sum of atomic charges =     0.000000

 -----------------------------------------------------------------
                    Cartesian Multipole Moments
 -----------------------------------------------------------------
    Charge (ESU x 10^10)
                 0.0000
    Dipole Moment (Debye)
         X      -1.0027      Y      -3.3400      Z      -0.3340
       Tot       3.5032
    Quadrupole Moments (Debye-Ang)
        XX     -65.9965     XY      -7.7794     YY     -69.0131
        XZ       0.5383     YZ       0.7076     ZZ     -65.6975
    Octopole Moments (Debye-Ang^2)
       XXX      21.2196    XXY     -15.9068    XYY      -0.7731
       YYY      -4.5038    XXZ       5.1461    XYZ      -1.7246
       YYZ      -5.3298    XZZ       1.4894    YZZ      -1.3361
       ZZZ      -3.2763
    Hexadecapole Moments (Debye-Ang^3)
      XXXX   -1709.6137   XXXY     -10.2039   XXYY    -399.2072
      XYYY     -26.1777   YYYY    -473.2565   XXXZ     -20.2210
      XXYZ       6.3254   XYYZ      -0.7820   YYYZ       7.3824
      XXZZ    -347.4246   XYZZ       6.5905   YYZZ    -142.8309
      XZZZ       3.2655   YZZZ      -1.3147   ZZZZ    -387.2455
 -----------------------------------------------------------------
 DrvMan is completing analytic gradient of the MP2 energy
 MP2 relaxed dipole moment
            1
    1  -0.3944881
    2  -1.3140443
    3  -0.1314018
	Magnitude:	 1.378 au	 3.503 Debye
 MP2 energy read as -655.728571
 Full Analytical Gradient of MP2 Energy (in au.)
             1             2             3             4             5
    1   -0.00023826    0.00047296   -0.00012993    0.00015243   -0.00030650
    2    0.00020690   -0.00013509   -0.00018873    0.00010605    0.00006068
    3    0.00023882   -0.00099471    0.00040542    0.00025689   -0.00004393
             6             7             8             9            10
    1   -0.00007572   -0.00004196    0.00006922    0.00007623    0.00002690
    2   -0.00004493   -0.00001097   -0.00011909    0.00012125   -0.00006273
    3    0.00000065   -0.00009678    0.00009442   -0.00004738    0.00004594
            11            12            13            14            15
    1   -0.00003398   -0.00007894   -0.00007423    0.00004395   -0.00000385
    2   -0.00004502    0.00004867    0.00014258   -0.00004575   -0.00002071
    3   -0.00001112   -0.00002382    0.00009590    0.00006086    0.00009769
            16            17            18            19            20
    1    0.00000624   -0.00003346    0.00005614    0.00001784    0.00001999
    2   -0.00010612    0.00000951    0.00001321   -0.00002603   -0.00002540
    3    0.00007749   -0.00005255   -0.00011563   -0.00003091    0.00003468
            21            22            23            24
    1    0.00006606   -0.00000840   -0.00002172    0.00003899
    2    0.00003708    0.00001473    0.00007180   -0.00000191
    3    0.00000596   -0.00004097    0.00002893    0.00001415
 Gradient time:  CPU 0.21 s  wall 0.14 s
 Geometry Optimization Parameters
   NAtoms,    NIC,     NZ,  NCons,   NDum,   NFix, NCnnct, MaxDiis
       24     165       0       0       0       0       0       0

 Cartesian Hessian Update
 Hessian Updated using BFGS Update


** GEOMETRY OPTIMIZATION IN DELOCALIZED INTERNAL COORDINATES **
   Searching for a Minimum

   Optimization Cycle:   3

                       Coordinates (Angstroms)
     ATOM                X               Y               Z
      1  C         3.3601174265   -0.6135061811    0.4048960663
      2  C         2.1827942956    0.1587482841   -0.1594502495
      3  O         2.1081319429    1.3819731992   -0.0860465923
      4  N         1.2060980095   -0.6020067148   -0.7355990420
      5  C        -0.0330384057   -0.0104670312   -1.2430798645
      6  Si       -1.4123242000   -0.0012762235    0.0667849558
      7  C        -0.7881020420    0.8809450323    1.5976705272
      8  C        -2.9192612102    0.8643587429   -0.6474183131
      9  C        -1.8310358911   -1.7884171293    0.4839125206
     10  H         3.3353753552   -0.5385569387    1.4955095863
     11  H         3.3618579885   -1.6685844509    0.1191330366
     12  H         4.2813542288   -0.1420156692    0.0575681861
     13  H         1.2959406866   -1.6059898126   -0.7080021499
     14  H        -0.3349956808   -0.5551271178   -2.1455254060
     15  H         0.2065321151    1.0138325214   -1.5467385864
     16  H         0.0693761954    0.3556878749    2.0305961801
     17  H        -1.5698815049    0.9357866171    2.3633152386
     18  H        -0.4601623656    1.8972305239    1.3603651460
     19  H        -3.2738288019    0.3665819316   -1.5563089429
     20  H        -3.7453611852    0.8703839938    0.0716412078
     21  H        -2.6916303609    1.9051160710   -0.9008879677
     22  H        -2.2004218046   -2.3303552224   -0.3936628938
     23  H        -2.6074623841   -1.8397137598    1.2549843101
     24  H        -0.9554927825   -2.3231190564    0.8687111452
   Point Group: c1    Number of degrees of freedom:    66


   Energy is   -655.728571254

 Hessian Updated using BFGS Update

 57 Hessian modes will be used to form the next step
  Hessian Eigenvalues:
     0.001756    0.002064    0.002401    0.002758    0.007017    0.007270
     0.012784    0.020159    0.022764    0.040900    0.044975    0.047652
     0.049922    0.052546    0.053334    0.053873    0.054184    0.054443
     0.054589    0.055494    0.070048    0.076549    0.096745    0.127823
     0.143233    0.144339    0.154429    0.159485    0.160852    0.162458
     0.192765    0.202015    0.204668    0.211496    0.219588    0.222965
     0.245125    0.260117    0.303143    0.340439    0.342232    0.342447
     0.342606    0.342747    0.342807    0.342841    0.343054    0.343147
     0.343853    0.344405    0.344590    0.344851    0.346770    0.373060
     0.460152    0.508979    0.841721

 Minimum Search - Taking Simple RFO Step
 Searching for Lamda that Minimizes Along All modes
 Value Taken    Lamda =  -0.00003153
 Step Taken.  Stepsize is  0.099322

                             Maximum     Tolerance    Cnvgd?
         Gradient           0.000393      0.000020      NO
         Displacement       0.057885      0.000120      NO
         Energy change     -0.000020      0.000000      NO


 New Cartesian Coordinates Obtained by Inverse Iteration

 Displacement from previous Coordinates is:  0.131548
 ----------------------------------------------------------------
             Standard Nuclear Orientation (Angstroms)
    I     Atom           X                Y                Z
 ----------------------------------------------------------------
    1      C       3.3634555937    -0.6211722669     0.4016846759
    2      C       2.1838710151     0.1576479947    -0.1519512599
    3      O       2.1178124626     1.3805311261    -0.0845983724
    4      N       1.2053531363    -0.6013046370    -0.7304088833
    5      C      -0.0308019642    -0.0071932837    -1.2391392080
    6      Si     -1.4143335097     0.0019891107     0.0675632522
    7      C      -0.7953795616     0.8863121019     1.5995571450
    8      C      -2.9215034678     0.8630527503    -0.6514593039
    9      C      -1.8290702180    -1.7863374013     0.4845890982
   10      H       3.3494053109    -0.5424995735     1.4921669175
   11      H       3.3559468485    -1.6769714428     0.1191502680
   12      H       4.2839080540    -0.1562854504     0.0437179091
   13      H       1.2953671963    -1.6054857677    -0.7072731969
   14      H      -0.3315988775    -0.5499848235    -2.1432246032
   15      H       0.2123832070     1.0165688732    -1.5419619824
   16      H       0.0809006740     0.3804513532     2.0170093284
   17      H      -1.5689437109     0.9128768396     2.3751974282
   18      H      -0.4977810261     1.9137117753     1.3704015178
   19      H      -3.2736422588     0.3622966294    -1.5595723661
   20      H      -3.7490632796     0.8687673580     0.0659481098
   21      H      -2.6967872097     1.9038364681    -0.9070404376
   22      H      -2.1965352722    -2.3295246913    -0.3930074165
   23      H      -2.6058492023    -1.8409443217     1.2551559202
   24      H      -0.9525343154    -2.3188292361     0.8698635583
 ----------------------------------------------------------------
 Molecular Point Group                 C1    NOp =  1
 Largest Abelian Subgroup              C1    NOp =  1
 Nuclear Repulsion Energy =   560.3783143138 hartrees
 There are       40 alpha and       40 beta electrons
 Applying Cartesian multipole field
    Component          Value
    ---------          -----
     (2,0,0)        1.00000E-11
     (0,2,0)        2.00000E-11
     (0,0,2)       -3.00000E-11
 Nucleus-field energy     =     0.0000000111 hartrees
 Requested basis set is 6-311+G(d,p)
 There are 121 shells and 296 basis functions
 A cutoff of  1.0D-11 yielded   6220 shell pairs
 There are     38307 function pairs (     40665 Cartesian)
 Smallest overlap matrix eigenvalue = 3.33E-05
 Guess MOs from SCF MO coefficient file
 Reading MOs from coefficient file
 Reading MOs from coefficient file

 -----------------------------------------------------------------------
  General SCF calculation program by
  Eric Jon Sundstrom, Paul Horn, Yuezhi Mao, Dmitri Zuev, Alec White,
  David Stuck, Shaama M.S., Shane Yost, Joonho Lee, David Small,
  Daniel Levine, Susi Lehtola, Hugh Burton, Evgeny Epifanovsky
 -----------------------------------------------------------------------
 Hartree-Fock
 using 4 threads for integral computing
 -------------------------------------------------------
 OpenMP Integral computing Module                
 Release: version 1.0, May 2013, Q-Chem Inc. Pittsburgh 
 -------------------------------------------------------
 A restricted SCF calculation will be
 performed using DIIS
 SCF converges when DIIS error is below 1.0e-08
 ---------------------------------------
  Cycle       Energy         DIIS error
 ---------------------------------------
    1    -654.3454465344      1.87e-04  
    2    -654.3442748269      3.85e-05  
    3    -654.3443067678      1.35e-05  
    4    -654.3443097929      7.42e-06  
    5    -654.3443104259      1.24e-06  
    6    -654.3443104562      4.14e-07  
    7    -654.3443104597      1.26e-07  
    8    -654.3443104602      5.01e-08  
    9    -654.3443104603      1.88e-08  
   10    -654.3443104603      6.00e-09  Convergence criterion met
 ---------------------------------------
 SCF time:   CPU 92.51s  wall 23.00s 
 SCF   energy in the final basis set =     -654.3443104603
 Total energy in the final basis set =     -654.3443104603
 
 Components of the MP2 correlation energy:
        aaaa  correlation energy =        -0.1671040632 au
        abab  correlation energy =        -1.0500558425 au
        bbbb  correlation energy =        -0.1671040632 au
        non-Brillouin singles    =        -0.0000000000 au

 Total  MP2   correlation energy =                    -1.38426397 au
        MP2         total energy =                  -655.72857443 au
  Entering Z-vector solver.
   1         0           1      0.000240    0.000240
   2         0           1      0.000082    0.000082
   3         0           1      0.000033    0.000033
   4         0           1      0.000008    0.000008
   5         0           1      0.000003    0.000003
   6         1           0      0.000000    0.000000    Roots Converged
 
 --------------------------------------------------------------
 
                    Orbital Energies (a.u.)
 --------------------------------------------------------------
 
 Alpha MOs
 -- Occupied --
-68.753 -20.511 -15.587 -11.351 -11.241 -11.239 -11.203 -11.200
-11.192  -6.100  -4.207  -4.207  -4.207  -1.374  -1.225  -1.015
 -0.970  -0.926  -0.919  -0.913  -0.786  -0.687  -0.651  -0.643
 -0.609  -0.580  -0.573  -0.567  -0.561  -0.553  -0.547  -0.539
 -0.531  -0.527  -0.520  -0.461  -0.433  -0.427  -0.418  -0.362
 -- Virtual --
  0.047   0.061   0.069   0.074   0.088   0.097   0.105   0.113
  0.117   0.123   0.130   0.135   0.146   0.151   0.153   0.159
  0.161   0.168   0.171   0.181   0.187   0.193   0.199   0.208
  0.210   0.216   0.227   0.238   0.245   0.251   0.260   0.272
  0.274   0.280   0.284   0.293   0.308   0.314   0.320   0.328
  0.343   0.346   0.352   0.360   0.364   0.374   0.384   0.394
  0.403   0.410   0.418   0.424   0.432   0.443   0.448   0.459
  0.471   0.477   0.488   0.495   0.513   0.536   0.561   0.576
  0.611   0.620   0.636   0.652   0.658   0.668   0.676   0.687
  0.712   0.720   0.731   0.749   0.770   0.802   0.809   0.824
  0.834   0.840   0.854   0.858   0.874   0.888   0.893   0.904
  0.907   0.920   0.927   0.934   0.937   0.951   0.959   0.987
  0.990   1.010   1.036   1.044   1.090   1.103   1.104   1.117
  1.138   1.141   1.156   1.182   1.200   1.228   1.278   1.300
  1.322   1.328   1.373   1.407   1.422   1.448   1.468   1.478
  1.491   1.500   1.536   1.539   1.571   1.659   1.690   1.705
  1.725   1.728   1.750   1.761   1.773   1.780   1.816   1.818
  1.835   1.836   1.851   1.855   1.866   1.877   1.883   1.893
  1.910   1.915   1.940   1.974   1.977   1.995   2.009   2.027
  2.039   2.048   2.053   2.086   2.101   2.108   2.112   2.117
  2.146   2.159   2.205   2.232   2.276   2.325   2.335   2.369
  2.379   2.427   2.468   2.471   2.488   2.498   2.510   2.522
  2.557   2.572   2.578   2.676   2.735   2.745   2.767   2.793
  2.796   2.807   2.814   2.828   2.835   2.865   2.881   2.897
  2.900   2.906   2.915   2.926   2.935   2.953   2.961   2.967
  2.973   2.978   2.989   2.993   3.022   3.063   3.096   3.177
  3.229   3.252   3.261   3.287   3.315   3.317   3.332   3.351
  3.495   3.508   3.576   3.693   3.721   3.733   3.787   3.831
  3.982   4.036   4.137   4.139   4.155   4.172   4.183   4.189
  4.203   4.221   4.231   4.319   4.425   4.622   5.307   5.441
  5.677   5.815   6.347   6.362  12.435  12.452  12.478  24.993
 25.032  25.115  25.120  25.128  25.148  37.023  51.751 144.114
 --------------------------------------------------------------
 
          Ground-State Mulliken Net Atomic Charges

     Atom                 Charge (a.u.)
  ----------------------------------------
      1 C                    -0.582339
      2 C                     0.182207
      3 O                    -0.333471
      4 N                    -0.167065
      5 C                    -0.634931
      6 Si                    1.292098
      7 C                    -0.817722
      8 C                    -0.784360
      9 C                    -0.861792
     10 H                     0.179325
     11 H                     0.130803
     12 H                     0.180261
     13 H                     0.254304
     14 H                     0.174025
     15 H                     0.217692
     16 H                     0.178262
     17 H                     0.165549
     18 H                     0.201933
     19 H                     0.166667
     20 H                     0.169906
     21 H                     0.174366
     22 H                     0.174231
     23 H                     0.176584
     24 H                     0.163467
  ----------------------------------------
  Sum of atomic charges =     0.000000

 -----------------------------------------------------------------
                    Cartesian Multipole Moments
 -----------------------------------------------------------------
    Charge (ESU x 10^10)
                 0.0000
    Dipole Moment (Debye)
         X      -1.0159      Y      -3.3321      Z      -0.3380
       Tot       3.4999
    Quadrupole Moments (Debye-Ang)
        XX     -66.0421     XY      -7.7979     YY     -68.9885
        XZ       0.5114     YZ       0.7117     ZZ     -65.6900
    Octopole Moments (Debye-Ang^2)
       XXX      20.9754    XXY     -16.0795    XYY      -0.8597
       YYY      -4.5312    XXZ       5.0107    XYZ      -1.6822
       YYZ      -5.4306    XZZ       1.5129    YZZ      -1.3765
       ZZZ      -3.4940
    Hexadecapole Moments (Debye-Ang^3)
      XXXX   -1713.8087   XXXY      -9.6376   XXYY    -399.9209
      XYYY     -25.1424   YYYY    -473.1481   XXXZ     -20.5588
      XXYZ       6.1633   XYYZ      -0.8458   YYYZ       7.3015
      XXZZ    -347.9642   XYZZ       7.0596   YYZZ    -142.8648
      XZZZ       3.0821   YZZZ      -1.3755   ZZZZ    -386.8767
 -----------------------------------------------------------------
 DrvMan is completing analytic gradient of the MP2 energy
 MP2 relaxed dipole moment
            1
    1  -0.3996770
    2  -1.3109534
    3  -0.1329937
	Magnitude:	 1.377 au	 3.500 Debye
 MP2 energy read as -655.728574
 Full Analytical Gradient of MP2 Energy (in au.)
             1             2             3             4             5
    1    0.00044286   -0.00069856    0.00053944   -0.00049332    0.00020736
    2   -0.00027219    0.00222887   -0.00129375   -0.00026786   -0.00020327
    3   -0.00036848    0.00142362   -0.00047110   -0.00073591    0.00015328
             6             7             8             9            10
    1   -0.00036045    0.00015136    0.00020977    0.00017350   -0.00020397
    2    0.00000838   -0.00005029   -0.00011713    0.00012179    0.00005630
    3    0.00019791   -0.00020745    0.00000490   -0.00011692   -0.00005793
            11            12            13            14            15
    1    0.00005029   -0.00003015    0.00000342    0.00011299    0.00013599
    2   -0.00002719   -0.00004651   -0.00000568   -0.00005140   -0.00009042
    3   -0.00000975    0.00001709   -0.00007365    0.00000521    0.00004225
            16            17            18            19            20
    1   -0.00006452   -0.00004576    0.00001199   -0.00000424    0.00002031
    2    0.00002902    0.00001411   -0.00000399    0.00001815   -0.00001612
    3    0.00001529    0.00004158    0.00003432    0.00001565    0.00000896
            21            22            23            24
    1   -0.00002437   -0.00004673   -0.00003567   -0.00005155
    2    0.00000985   -0.00002090   -0.00003057    0.00001082
    3    0.00001163    0.00002301    0.00004745   -0.00000097
 Gradient time:  CPU 0.21 s  wall 0.15 s
 Geometry Optimization Parameters
   NAtoms,    NIC,     NZ,  NCons,   NDum,   NFix, NCnnct, MaxDiis
       24     165       0       0       0       0       0       0

 Cartesian Hessian Update
 Hessian Updated using BFGS Update


** GEOMETRY OPTIMIZATION IN DELOCALIZED INTERNAL COORDINATES **
   Searching for a Minimum

   Optimization Cycle:   4

                       Coordinates (Angstroms)
     ATOM                X               Y               Z
      1  C         3.3634555937   -0.6211722669    0.4016846759
      2  C         2.1838710151    0.1576479947   -0.1519512599
      3  O         2.1178124626    1.3805311261   -0.0845983724
      4  N         1.2053531363   -0.6013046370   -0.7304088833
      5  C        -0.0308019642   -0.0071932837   -1.2391392080
      6  Si       -1.4143335097    0.0019891107    0.0675632522
      7  C        -0.7953795616    0.8863121019    1.5995571450
      8  C        -2.9215034678    0.8630527503   -0.6514593039
      9  C        -1.8290702180   -1.7863374013    0.4845890982
     10  H         3.3494053109   -0.5424995735    1.4921669175
     11  H         3.3559468485   -1.6769714428    0.1191502680
     12  H         4.2839080540   -0.1562854504    0.0437179091
     13  H         1.2953671963   -1.6054857677   -0.7072731969
     14  H        -0.3315988775   -0.5499848235   -2.1432246032
     15  H         0.2123832070    1.0165688732   -1.5419619824
     16  H         0.0809006740    0.3804513532    2.0170093284
     17  H        -1.5689437109    0.9128768396    2.3751974282
     18  H        -0.4977810261    1.9137117753    1.3704015178
     19  H        -3.2736422588    0.3622966294   -1.5595723661
     20  H        -3.7490632796    0.8687673580    0.0659481098
     21  H        -2.6967872097    1.9038364681   -0.9070404376
     22  H        -2.1965352722   -2.3295246913   -0.3930074165
     23  H        -2.6058492023   -1.8409443217    1.2551559202
     24  H        -0.9525343154   -2.3188292361    0.8698635583
   Point Group: c1    Number of degrees of freedom:    66


   Energy is   -655.728574429

 Hessian Updated using BFGS Update

 58 Hessian modes will be used to form the next step
  Hessian Eigenvalues:
     0.001591    0.002068    0.002393    0.002764    0.006981    0.007298
     0.012713    0.020216    0.038670    0.041067    0.044907    0.047701
     0.049884    0.052239    0.053313    0.053878    0.054185    0.054444
     0.054588    0.055451    0.070583    0.076553    0.096981    0.127845
     0.143128    0.144314    0.156781    0.159724    0.160134    0.162029
     0.164980    0.193634    0.202042    0.203712    0.208045    0.219581
     0.220654    0.247282    0.267377    0.305299    0.340411    0.342422
     0.342449    0.342598    0.342759    0.342798    0.342841    0.342943
     0.343070    0.343896    0.344483    0.344578    0.344817    0.346727
     0.381396    0.459905    0.524966    0.860836

 Minimum Search - Taking Simple RFO Step
 Searching for Lamda that Minimizes Along All modes
 Value Taken    Lamda =  -0.00001678
 Step Taken.  Stepsize is  0.018670

                             Maximum     Tolerance    Cnvgd?
         Gradient           0.001016      0.000020      NO
         Displacement       0.009252      0.000120      NO
         Energy change     -0.000003      0.000000      NO


 New Cartesian Coordinates Obtained by Inverse Iteration

 Displacement from previous Coordinates is:  0.016816
 ----------------------------------------------------------------
             Standard Nuclear Orientation (Angstroms)
    I     Atom           X                Y                Z
 ----------------------------------------------------------------
    1      C       3.3638773280    -0.6215553257     0.4019350794
    2      C       2.1851917180     0.1556419961    -0.1550948828
    3      O       2.1155779586     1.3788914378    -0.0841547235
    4      N       1.2056222115    -0.6024509060    -0.7315260215
    5      C      -0.0307459227    -0.0063925657    -1.2394706170
    6      Si     -1.4138181982     0.0023482962     0.0675560818
    7      C      -0.7957161407     0.8867952210     1.6001900840
    8      C      -2.9219460795     0.8632024322    -0.6513235935
    9      C      -1.8283216567    -1.7863582002     0.4847219271
   10      H       3.3489883739    -0.5418413616     1.4923601259
   11      H       3.3573114433    -1.6776194140     0.1204861385
   12      H       4.2848025842    -0.1567372042     0.0448265264
   13      H       1.2947659973    -1.6067537333    -0.7084818094
   14      H      -0.3330334685    -0.5478659129    -2.1438635288
   15      H       0.2119555384     1.0177635300    -1.5416336117
   16      H       0.0810719404     0.3814780243     2.0173785142
   17      H      -1.5692304845     0.9126044061     2.3757918239
   18      H      -0.4988061344     1.9143702431     1.3710236586
   19      H      -3.2746698799     0.3616647221    -1.5587959167
   20      H      -3.7491639575     0.8698806385     0.0664725815
   21      H      -2.6970408653     1.9036284880    -0.9081315109
   22      H      -2.1931386630    -2.3301889337    -0.3935505890
   23      H      -2.6067912192    -1.8410280203     1.2534535452
   24      H      -0.9521627989    -2.3179683730     0.8721988168
 ----------------------------------------------------------------
 Molecular Point Group                 C1    NOp =  1
 Largest Abelian Subgroup              C1    NOp =  1
 Nuclear Repulsion Energy =   560.3462974919 hartrees
 There are       40 alpha and       40 beta electrons
 Applying Cartesian multipole field
    Component          Value
    ---------          -----
     (2,0,0)        1.00000E-11
     (0,2,0)        2.00000E-11
     (0,0,2)       -3.00000E-11
 Nucleus-field energy     =     0.0000000111 hartrees
 Requested basis set is 6-311+G(d,p)
 There are 121 shells and 296 basis functions
 A cutoff of  1.0D-11 yielded   6219 shell pairs
 There are     38293 function pairs (     40651 Cartesian)
 Smallest overlap matrix eigenvalue = 3.33E-05
 Guess MOs from SCF MO coefficient file
 Reading MOs from coefficient file
 Reading MOs from coefficient file

 -----------------------------------------------------------------------
  General SCF calculation program by
  Eric Jon Sundstrom, Paul Horn, Yuezhi Mao, Dmitri Zuev, Alec White,
  David Stuck, Shaama M.S., Shane Yost, Joonho Lee, David Small,
  Daniel Levine, Susi Lehtola, Hugh Burton, Evgeny Epifanovsky
 -----------------------------------------------------------------------
 Hartree-Fock
 using 4 threads for integral computing
 -------------------------------------------------------
 OpenMP Integral computing Module                
 Release: version 1.0, May 2013, Q-Chem Inc. Pittsburgh 
 -------------------------------------------------------
 A restricted SCF calculation will be
 performed using DIIS
 SCF converges when DIIS error is below 1.0e-08
 ---------------------------------------
  Cycle       Energy         DIIS error
 ---------------------------------------
    1    -654.3430456902      6.50e-05  
    2    -654.3442912797      1.15e-05  
    3    -654.3442931818      6.38e-06  
    4    -654.3442935660      2.20e-06  
    5    -654.3442936419      5.04e-07  
    6    -654.3442936468      1.79e-07  
    7    -654.3442936476      6.57e-08  
    8    -654.3442936477      1.92e-08  
    9    -654.3442936478      6.99e-09  Convergence criterion met
 ---------------------------------------
 SCF time:   CPU 83.25s  wall 21.00s 
 SCF   energy in the final basis set =     -654.3442936478
 Total energy in the final basis set =     -654.3442936478
 
 Components of the MP2 correlation energy:
        aaaa  correlation energy =        -0.1671043666 au
        abab  correlation energy =        -1.0500819677 au
        bbbb  correlation energy =        -0.1671043666 au
        non-Brillouin singles    =        -0.0000000000 au

 Total  MP2   correlation energy =                    -1.38429070 au
        MP2         total energy =                  -655.72858435 au
  Entering Z-vector solver.
   1         0           1      0.000240    0.000240
   2         0           1      0.000082    0.000082
   3         0           1      0.000033    0.000033
   4         0           1      0.000008    0.000008
   5         0           1      0.000003    0.000003
   6         1           0      0.000000    0.000000    Roots Converged
 
 --------------------------------------------------------------
 
                    Orbital Energies (a.u.)
 --------------------------------------------------------------
 
 Alpha MOs
 -- Occupied --
-68.753 -20.511 -15.587 -11.351 -11.241 -11.239 -11.203 -11.200
-11.192  -6.100  -4.207  -4.207  -4.207  -1.373  -1.225  -1.015
 -0.970  -0.926  -0.919  -0.914  -0.787  -0.687  -0.651  -0.643
 -0.609  -0.580  -0.573  -0.566  -0.561  -0.553  -0.547  -0.539
 -0.531  -0.527  -0.520  -0.461  -0.433  -0.427  -0.418  -0.362
 -- Virtual --
  0.047   0.061   0.069   0.074   0.088   0.097   0.105   0.113
  0.117   0.123   0.130   0.135   0.146   0.151   0.153   0.159
  0.161   0.169   0.171   0.181   0.187   0.193   0.199   0.208
  0.210   0.216   0.227   0.238   0.245   0.251   0.260   0.272
  0.274   0.280   0.284   0.293   0.308   0.314   0.320   0.328
  0.343   0.346   0.352   0.360   0.364   0.374   0.384   0.394
  0.403   0.410   0.418   0.424   0.432   0.443   0.448   0.459
  0.471   0.477   0.487   0.495   0.514   0.536   0.561   0.576
  0.610   0.620   0.636   0.652   0.658   0.668   0.676   0.687
  0.712   0.720   0.731   0.749   0.770   0.802   0.809   0.824
  0.834   0.840   0.854   0.858   0.874   0.888   0.893   0.904
  0.908   0.920   0.927   0.934   0.937   0.951   0.959   0.987
  0.990   1.010   1.036   1.044   1.090   1.103   1.104   1.117
  1.138   1.141   1.156   1.182   1.200   1.229   1.278   1.299
  1.321   1.328   1.373   1.406   1.423   1.448   1.467   1.478
  1.491   1.499   1.536   1.539   1.570   1.659   1.689   1.705
  1.725   1.728   1.750   1.761   1.773   1.780   1.816   1.818
  1.835   1.836   1.851   1.855   1.866   1.877   1.883   1.893
  1.910   1.915   1.940   1.974   1.977   1.995   2.009   2.027
  2.039   2.047   2.053   2.086   2.101   2.108   2.112   2.117
  2.145   2.159   2.204   2.232   2.276   2.325   2.335   2.369
  2.379   2.426   2.468   2.471   2.488   2.498   2.510   2.522
  2.557   2.572   2.578   2.677   2.735   2.745   2.766   2.792
  2.796   2.807   2.814   2.828   2.835   2.865   2.881   2.897
  2.900   2.906   2.915   2.926   2.935   2.953   2.960   2.967
  2.973   2.978   2.989   2.993   3.022   3.063   3.096   3.176
  3.230   3.252   3.261   3.288   3.315   3.317   3.331   3.352
  3.495   3.507   3.577   3.693   3.721   3.733   3.787   3.830
  3.982   4.036   4.137   4.139   4.155   4.172   4.183   4.189
  4.203   4.221   4.230   4.319   4.425   4.623   5.306   5.441
  5.677   5.815   6.346   6.362  12.435  12.452  12.478  24.992
 25.031  25.115  25.120  25.128  25.148  37.023  51.751 144.114
 --------------------------------------------------------------
 
          Ground-State Mulliken Net Atomic Charges

     Atom                 Charge (a.u.)
  ----------------------------------------
      1 C                    -0.582165
      2 C                     0.181187
      3 O                    -0.333505
      4 N                    -0.166580
      5 C                    -0.635044
      6 Si                    1.291479
      7 C                    -0.817262
      8 C                    -0.784183
      9 C                    -0.861627
     10 H                     0.179576
     11 H                     0.130810
     12 H                     0.180220
     13 H                     0.254391
     14 H                     0.174153
     15 H                     0.217891
     16 H                     0.178279
     17 H                     0.165494
     18 H                     0.201836
     19 H                     0.166599
     20 H                     0.169909
     21 H                     0.174316
     22 H                     0.174207
     23 H                     0.176578
     24 H                     0.163440
  ----------------------------------------
  Sum of atomic charges =     0.000000

 -----------------------------------------------------------------
                    Cartesian Multipole Moments
 -----------------------------------------------------------------
    Charge (ESU x 10^10)
                 0.0000
    Dipole Moment (Debye)
         X      -1.0089      Y      -3.3346      Z      -0.3418
       Tot       3.5007
    Quadrupole Moments (Debye-Ang)
        XX     -66.0223     XY      -7.8046     YY     -68.9861
        XZ       0.5152     YZ       0.7051     ZZ     -65.6892
    Octopole Moments (Debye-Ang^2)
       XXX      21.1024    XXY     -16.0719    XYY      -0.8428
       YYY      -4.4856    XXZ       5.0546    XYZ      -1.6907
       YYZ      -5.4203    XZZ       1.5229    YZZ      -1.3626
       ZZZ      -3.4476
    Hexadecapole Moments (Debye-Ang^3)
      XXXX   -1713.3704   XXXY      -9.3412   XXYY    -399.8935
      XYYY     -24.8195   YYYY    -473.0931   XXXZ     -20.3669
      XXYZ       6.1196   XYYZ      -0.7994   YYYZ       7.2689
      XXZZ    -347.9741   XYZZ       7.1577   YYZZ    -142.9038
      XZZZ       3.2295   YZZZ      -1.4290   ZZZZ    -387.1256
 -----------------------------------------------------------------
 DrvMan is completing analytic gradient of the MP2 energy
 MP2 relaxed dipole moment
            1
    1  -0.3969342
    2  -1.3119494
    3  -0.1344736
	Magnitude:	 1.377 au	 3.501 Debye
 MP2 energy read as -655.728584
 Full Analytical Gradient of MP2 Energy (in au.)
             1             2             3             4             5
    1    0.00018381   -0.00001054    0.00002045   -0.00017779    0.00006394
    2   -0.00018940    0.00082374   -0.00049510   -0.00012267   -0.00004683
    3   -0.00001364    0.00018696   -0.00010076   -0.00021132    0.00007168
             6             7             8             9            10
    1   -0.00014718    0.00008823    0.00002973    0.00005129   -0.00003794
    2   -0.00000916    0.00002612   -0.00001847    0.00001616   -0.00000866
[...]
 C         -0.035  0.004 -0.019    0.010 -0.013 -0.036    0.002 -0.001  0.000
 H          0.010 -0.020  0.000    0.001  0.029 -0.002    0.020 -0.555  0.048
 H         -0.016 -0.005  0.028    0.015  0.006 -0.033   -0.280 -0.116  0.631
 H         -0.006  0.022  0.008    0.009 -0.020  0.003   -0.171  0.392 -0.045
 H          0.001  0.001 -0.006    0.012  0.002 -0.001   -0.052 -0.004 -0.006
 H         -0.026 -0.023  0.020    0.003 -0.035  0.021   -0.010  0.010 -0.006
 H          0.026  0.004  0.027    0.029  0.006  0.033    0.015 -0.008 -0.007
 H          0.097  0.128 -0.071   -0.129 -0.154  0.106   -0.026 -0.030  0.021
 H         -0.078 -0.054 -0.060    0.102  0.008  0.086    0.019  0.002  0.016
 H          0.167 -0.046  0.013   -0.175  0.040 -0.060   -0.034  0.009 -0.010
 H          0.332  0.096 -0.208   -0.049 -0.300  0.177   -0.006 -0.017  0.012
 H          0.188  0.375  0.214   -0.062  0.237 -0.114   -0.006  0.008 -0.009
 H         -0.268  0.033  0.015   -0.079  0.142  0.428   -0.001  0.007  0.021
 H          0.362  0.023 -0.183   -0.228  0.237 -0.093   -0.027  0.008  0.006
 H          0.315  0.095  0.338    0.196 -0.212  0.158   -0.010 -0.012 -0.013
 H         -0.179 -0.167  0.111   -0.120  0.159  0.462    0.006  0.015  0.009
 TransDip   0.064  0.016  0.020   -0.035  0.012  0.089   -0.076 -0.041  0.059

 Mode:                49                     50                     51
 Frequency:      1504.78                1553.28                1746.43
 Force Cnst:      1.4281                 3.1777                16.5423
 Red. Mass:       1.0704                 2.2355                 9.2054
 IR Active:          YES                    YES                    YES
 IR Intens:       24.852                204.523                263.856
 Raman Active:       YES                    YES                    YES
               X      Y      Z        X      Y      Z        X      Y      Z
 C          0.016 -0.056 -0.014    0.037 -0.023  0.017    0.021 -0.056  0.008
 C         -0.008  0.014 -0.010   -0.181 -0.016 -0.092   -0.034  0.706  0.032
 O          0.002 -0.017  0.001    0.018 -0.011  0.008    0.032 -0.411 -0.015
 N         -0.026 -0.008 -0.013    0.199  0.060  0.102   -0.019 -0.080 -0.018
 C          0.010  0.009  0.003   -0.051 -0.028 -0.017    0.000  0.015 -0.008
 Si         0.000  0.001  0.000    0.000 -0.003 -0.002   -0.002  0.002  0.005
 C         -0.001  0.001 -0.001    0.002  0.001  0.001   -0.005 -0.001  0.001
 C          0.000  0.001  0.001   -0.001 -0.001  0.000    0.002 -0.001 -0.004
 C          0.000 -0.000 -0.000   -0.002  0.000  0.003    0.001  0.000 -0.002
 H          0.402  0.340 -0.066    0.122  0.112 -0.000   -0.121 -0.032  0.019
 H         -0.479 -0.003 -0.112   -0.142  0.006 -0.110    0.216 -0.074  0.135
 H          0.029  0.423  0.491    0.064  0.048  0.138   -0.086  0.055 -0.146
 H          0.181  0.017  0.089   -0.737 -0.039 -0.359   -0.285 -0.104 -0.162
 H          0.046 -0.026  0.015   -0.230  0.141 -0.071    0.103 -0.175  0.080
 H         -0.064  0.025 -0.003    0.221 -0.091 -0.001    0.072  0.052  0.126
 H         -0.003  0.004  0.008   -0.007 -0.020 -0.004    0.029  0.042 -0.015
 H          0.005 -0.012  0.005    0.002  0.019  0.001   -0.020 -0.033 -0.019
 H          0.008 -0.003 -0.007   -0.026  0.009  0.008    0.060 -0.018 -0.013
 H         -0.009  0.002  0.003    0.016 -0.008 -0.002   -0.011  0.006 -0.002
 H         -0.004 -0.014 -0.004    0.001  0.026  0.002    0.013 -0.015  0.011
 H          0.010 -0.003 -0.006   -0.017  0.006  0.012    0.005 -0.000 -0.002
 H         -0.002  0.000  0.000    0.009 -0.001 -0.001    0.006 -0.009  0.001
 H          0.001 -0.002  0.001   -0.011  0.009 -0.009    0.007  0.007  0.006
 H         -0.002 -0.000  0.003    0.014  0.002 -0.024   -0.008 -0.009  0.003
 TransDip   0.068  0.126  0.072   -0.413 -0.107 -0.167    0.172  0.485  0.075

 Mode:                52                     53                     54
 Frequency:      3059.52                3063.13                3066.85
 Force Cnst:      5.7123                 5.7249                 5.7404
 Red. Mass:       1.0357                 1.0356                 1.0359
 IR Active:          YES                    YES                    YES
 IR Intens:        7.495                  6.105                  5.180
 Raman Active:       YES                    YES                    YES
               X      Y      Z        X      Y      Z        X      Y      Z
 C         -0.000  0.000 -0.000    0.000 -0.000 -0.000   -0.000  0.000 -0.000
 C          0.000 -0.000  0.000   -0.000 -0.000 -0.000   -0.000 -0.000  0.000
 O          0.000 -0.000 -0.000    0.000  0.000  0.000   -0.000  0.000  0.000
 N         -0.000 -0.000  0.000    0.000  0.000 -0.000    0.000  0.000  0.000
 C         -0.000 -0.000  0.000   -0.000  0.000 -0.002    0.000 -0.000  0.002
 Si        -0.000 -0.001  0.000   -0.001  0.000 -0.000    0.000  0.001  0.001
 C          0.000  0.000  0.000   -0.000  0.000  0.000   -0.010 -0.022 -0.044
 C         -0.000 -0.000 -0.000    0.041 -0.021  0.020    0.000 -0.000  0.000
 C          0.009  0.048 -0.011   -0.000 -0.000 -0.000    0.000  0.000  0.000
 H          0.000  0.000  0.002    0.000 -0.000 -0.000    0.000  0.001  0.007
 H         -0.000 -0.002 -0.000    0.000  0.000  0.000   -0.000 -0.006 -0.001
 H          0.001  0.001 -0.001   -0.000 -0.000  0.000    0.004  0.002 -0.002
 H          0.000  0.000  0.000   -0.000 -0.000 -0.000    0.000 -0.000  0.000
 H         -0.001 -0.002 -0.004    0.009  0.017  0.025   -0.008 -0.016 -0.025
 H          0.003  0.008 -0.003   -0.004 -0.020  0.006    0.005  0.020 -0.006
 H         -0.005  0.003 -0.002   -0.000  0.001  0.001    0.451 -0.251  0.200
 H          0.005 -0.000 -0.005    0.004 -0.000 -0.004   -0.463  0.010  0.449
 H          0.000 -0.001  0.001   -0.001 -0.005  0.001    0.126  0.489 -0.138
 H          0.000  0.001  0.001   -0.173 -0.295 -0.472   -0.003 -0.004 -0.007
 H          0.001 -0.000 -0.001   -0.426  0.005  0.391   -0.002  0.000  0.001
 H         -0.000  0.003 -0.001    0.127  0.533 -0.146    0.001  0.003 -0.001
 H         -0.187 -0.293 -0.474    0.001  0.001  0.002   -0.003 -0.005 -0.006
 H         -0.399 -0.004  0.389    0.001 -0.000 -0.001   -0.001 -0.000  0.001
 H          0.479 -0.257  0.215    0.002 -0.002  0.001    0.002 -0.001  0.001
 TransDip   0.012  0.086 -0.012    0.068 -0.028  0.030    0.011 -0.010 -0.071

 Mode:                55                     56                     57
 Frequency:      3074.28                3084.71                3142.07
 Force Cnst:      5.9031                 5.8043                 6.4098
 Red. Mass:       1.0601                 1.0353                 1.1019
 IR Active:          YES                    YES                    YES
 IR Intens:       26.033                  9.181                  1.921
 Raman Active:       YES                    YES                    YES
               X      Y      Z        X      Y      Z        X      Y      Z
 C          0.001 -0.001  0.000    0.036 -0.028  0.021    0.000  0.001  0.001
 C          0.001  0.001  0.000   -0.002  0.001 -0.001    0.000 -0.001 -0.000
 O          0.000 -0.000  0.000    0.000  0.000  0.000   -0.000  0.000 -0.000
 N         -0.000 -0.000 -0.000    0.000  0.000  0.000    0.001  0.001  0.000
 C         -0.008  0.009 -0.068    0.000  0.000  0.002   -0.027 -0.087 -0.018
 Si        -0.001 -0.000  0.000   -0.000 -0.000  0.000   -0.000 -0.001 -0.000
 C         -0.000 -0.001 -0.002    0.000 -0.000 -0.000   -0.000  0.000  0.000
 C         -0.001  0.001 -0.000    0.000 -0.000 -0.000    0.001  0.003  0.001
 C          0.000  0.001  0.001    0.000  0.000 -0.000    0.001 -0.000  0.001
 H         -0.000 -0.002 -0.011   -0.007 -0.085 -0.575    0.000 -0.001 -0.008
 H          0.001  0.017  0.004    0.024  0.614  0.133    0.000 -0.005 -0.001
 H         -0.010 -0.005  0.004   -0.420 -0.212  0.205   -0.004 -0.002  0.002
 H         -0.002  0.001 -0.002    0.000 -0.002  0.000   -0.005 -0.010  0.002
 H          0.222  0.432  0.651   -0.005 -0.011 -0.017    0.146  0.292  0.465
 H         -0.121 -0.541  0.156    0.002  0.010 -0.003    0.175  0.757 -0.252
 H          0.017 -0.009  0.008    0.003 -0.002  0.001    0.004 -0.002  0.002
 H         -0.019  0.000  0.018   -0.006  0.000  0.006    0.002  0.000 -0.003
 H          0.005  0.018 -0.005    0.001  0.005 -0.001   -0.000 -0.001  0.001
 H          0.006  0.009  0.015   -0.000 -0.000 -0.000   -0.007 -0.012 -0.021
 H          0.020 -0.001 -0.017   -0.000 -0.000  0.000   -0.002  0.001  0.003
 H         -0.005 -0.021  0.006    0.000  0.000 -0.000   -0.007 -0.028  0.009
 H         -0.003 -0.005 -0.009   -0.000 -0.001 -0.001   -0.001 -0.003 -0.005
 H         -0.001  0.000  0.001   -0.001  0.000  0.001    0.002  0.001 -0.001
 H          0.003 -0.002  0.001    0.001 -0.001  0.000   -0.010  0.006 -0.005
 TransDip  -0.099 -0.027 -0.127    0.060 -0.072  0.024    0.005 -0.033 -0.029

 Mode:                58                     59                     60
 Frequency:      3151.80                3153.18                3156.04
 Force Cnst:      6.4370                 6.4444                 6.4548
 Red. Mass:       1.0998                 1.1001                 1.0999
 IR Active:          YES                    YES                    YES
 IR Intens:       12.031                  5.934                 13.274
 Raman Active:       YES                    YES                    YES
               X      Y      Z        X      Y      Z        X      Y      Z
 C         -0.000 -0.000  0.000    0.000  0.000  0.000   -0.000 -0.000 -0.000
 C          0.000  0.000  0.000   -0.000 -0.000 -0.000    0.000  0.000  0.000
 O         -0.000 -0.000 -0.000    0.000  0.000  0.000    0.000 -0.000 -0.000
 N         -0.000 -0.000  0.000    0.000 -0.000  0.000   -0.000 -0.000 -0.000
 C         -0.000 -0.001 -0.000   -0.000 -0.000 -0.000    0.001  0.001  0.001
 Si        -0.001  0.000 -0.000    0.000 -0.000 -0.001   -0.000  0.000  0.001
 C          0.009 -0.002 -0.002   -0.004  0.001  0.001    0.009  0.000 -0.003
 C         -0.000  0.000  0.001   -0.005  0.007  0.018   -0.028  0.022  0.082
 C         -0.087  0.012 -0.024    0.019 -0.025 -0.083   -0.003  0.005  0.019
 H         -0.000 -0.000 -0.001    0.000 -0.000 -0.001   -0.000  0.000  0.000
 H          0.000  0.000  0.000   -0.000 -0.000 -0.000    0.000  0.000  0.000
 H          0.001  0.001 -0.001    0.000  0.000  0.000    0.000  0.000 -0.000
 H          0.001  0.001 -0.001   -0.001  0.001 -0.000    0.000 -0.000  0.000
 H          0.002  0.004  0.007    0.001  0.003  0.005   -0.002 -0.007 -0.011
 H          0.002  0.009 -0.003    0.000 -0.001  0.000   -0.001 -0.006  0.002
 H         -0.059  0.033 -0.029    0.031 -0.017  0.015   -0.048  0.027 -0.024
 H         -0.052  0.001  0.053    0.021  0.000 -0.022   -0.048  0.001  0.049
 H          0.000 -0.011  0.002    0.000  0.005 -0.001   -0.006 -0.032  0.007
 H         -0.001 -0.002 -0.002   -0.051 -0.077 -0.125   -0.217 -0.319 -0.520
 H          0.008 -0.001 -0.007    0.118 -0.001 -0.101    0.546 -0.010 -0.463
 H          0.000  0.001 -0.000   -0.002 -0.001  0.006    0.007  0.068  0.000
 H          0.108  0.209  0.309    0.230  0.360  0.537   -0.053 -0.084 -0.124
 H          0.296  0.019 -0.315   -0.496 -0.031  0.470    0.103  0.007 -0.098
 H          0.641 -0.376  0.299    0.037 -0.024 -0.004   -0.020  0.012 -0.005
 TransDip  -0.104  0.009 -0.037    0.010 -0.021 -0.074   -0.024  0.031  0.110

 Mode:                61                     62                     63
 Frequency:      3157.98                3158.58                3168.66
 Force Cnst:      6.4629                 6.4658                 6.5076
 Red. Mass:       1.0999                 1.1000                 1.1001
 IR Active:          YES                    YES                    YES
 IR Intens:       11.795                 14.805                  5.554
 Raman Active:       YES                    YES                    YES
               X      Y      Z        X      Y      Z        X      Y      Z
 C         -0.000  0.000  0.000    0.000  0.000 -0.000    0.000  0.001  0.001
 C         -0.000  0.000 -0.000    0.000 -0.000 -0.000   -0.000 -0.000 -0.000
 O          0.000 -0.000 -0.000   -0.000  0.000  0.000   -0.000  0.000  0.000
 N          0.000  0.000 -0.000    0.000  0.000  0.000    0.000  0.000 -0.000
 C         -0.001 -0.002 -0.000   -0.001 -0.002 -0.001    0.000 -0.000 -0.000
 Si         0.000 -0.001 -0.000   -0.001 -0.000  0.000    0.000 -0.001  0.000
 C          0.071 -0.008 -0.019   -0.049  0.010  0.011   -0.000 -0.079  0.045
 C         -0.024 -0.047 -0.002   -0.039 -0.064  0.009   -0.002 -0.003  0.002
 C          0.009 -0.003 -0.004   -0.005  0.001  0.001    0.001 -0.000 -0.000
 H         -0.000 -0.000 -0.001    0.000 -0.000 -0.000   -0.000 -0.001 -0.013
 H         -0.000 -0.003 -0.001   -0.000  0.001  0.000   -0.001 -0.013 -0.003
 H          0.002  0.001 -0.001   -0.002 -0.001  0.001   -0.000  0.000  0.000
 H         -0.000 -0.001  0.000   -0.000  0.000 -0.000   -0.000  0.000  0.000
 H          0.003  0.008  0.012    0.004  0.008  0.014    0.000  0.001  0.002
 H          0.005  0.020 -0.006    0.006  0.021 -0.008    0.001  0.002 -0.002
 H         -0.433  0.239 -0.218    0.320 -0.174  0.159   -0.398  0.195 -0.179
 H         -0.405  0.012  0.420    0.270 -0.007 -0.281    0.188 -0.022 -0.180
 H         -0.022 -0.149  0.033    0.006  0.066 -0.013    0.211  0.783 -0.189
 H          0.093  0.141  0.250    0.103  0.158  0.287    0.001  0.002  0.004
 H          0.102 -0.013 -0.096    0.236 -0.021 -0.211    0.019 -0.001 -0.016
 H          0.088  0.433 -0.125    0.128  0.637 -0.181    0.006  0.033 -0.010
 H          0.006  0.008  0.011    0.002  0.005  0.006    0.001  0.001  0.001
 H         -0.060 -0.004  0.060    0.030  0.003 -0.030   -0.002  0.000  0.002
 H         -0.055  0.033 -0.027    0.034 -0.020  0.016   -0.006  0.004 -0.003
 TransDip   0.071 -0.075 -0.037   -0.111 -0.048  0.022    0.008 -0.056  0.050

 Mode:                64                     65                     66
 Frequency:      3177.15                3186.87                3680.07
 Force Cnst:      6.5573                 6.5956                 8.6069
 Red. Mass:       1.1026                 1.1022                 1.0787
 IR Active:          YES                    YES                    YES
 IR Intens:       10.893                  7.102                 33.065
 Raman Active:       YES                    YES                    YES
               X      Y      Z        X      Y      Z        X      Y      Z
 C          0.006 -0.053 -0.076   -0.058 -0.062  0.038   -0.000 -0.000 -0.000
 C         -0.001 -0.001 -0.001   -0.001 -0.002 -0.000    0.002 -0.000  0.001
 O          0.000  0.001  0.000    0.000  0.001 -0.000   -0.000  0.001  0.000
 N          0.000  0.001  0.000    0.000  0.001  0.000    0.007 -0.073  0.001
 C         -0.000 -0.001  0.000   -0.000 -0.000  0.000   -0.002  0.000 -0.001
 Si        -0.000 -0.000 -0.000   -0.000 -0.000  0.000    0.000  0.000  0.000
 C          0.000 -0.001  0.001   -0.000 -0.000  0.000    0.000 -0.000 -0.000
 C         -0.000 -0.000  0.000   -0.000 -0.000 -0.000   -0.000 -0.000 -0.000
 C         -0.000 -0.000 -0.000    0.000 -0.000  0.000    0.000 -0.000  0.000
 H          0.019  0.095  0.767   -0.020 -0.046 -0.233    0.000  0.000  0.001
 H          0.022  0.603  0.115    0.007  0.452  0.104    0.002  0.006  0.002
 H         -0.102 -0.061  0.030    0.706  0.335 -0.329    0.001  0.001 -0.000
 H          0.003 -0.004  0.000    0.002 -0.003  0.001   -0.106  0.991 -0.020
 H          0.001  0.001  0.002    0.001  0.001  0.002    0.003  0.001  0.003
 H          0.002  0.009 -0.003    0.001  0.004 -0.002   -0.001  0.009 -0.003
 H         -0.010  0.005 -0.004    0.000 -0.000  0.000   -0.000  0.000 -0.000
 H          0.003 -0.000 -0.002    0.002 -0.000 -0.002   -0.000  0.000  0.000
 H          0.004  0.013 -0.003    0.001  0.003 -0.001    0.000 -0.000 -0.000
 H          0.000  0.000  0.001    0.000  0.000  0.000   -0.000 -0.000 -0.000
 H          0.000 -0.000 -0.000    0.000 -0.000 -0.000   -0.000 -0.000  0.000
 H          0.000  0.001 -0.000    0.000  0.001 -0.000    0.000 -0.000  0.000
 H          0.000  0.001  0.001   -0.000 -0.000 -0.000   -0.000 -0.000 -0.001
 H         -0.000 -0.000  0.000   -0.000  0.000  0.000   -0.000 -0.000 -0.000
 H          0.000 -0.000  0.000   -0.001  0.001 -0.000   -0.001  0.001 -0.000
 TransDip   0.012 -0.087 -0.058   -0.042 -0.072  0.018    0.040  0.177  0.031

 STANDARD THERMODYNAMIC QUANTITIES AT   298.15 K  AND     1.00 ATM

   This Molecule has  0 Imaginary Frequencies
   Zero point vibrational energy:      128.511 kcal/mol

   Atom    1 Element C  Has Mass   12.00000
   Atom    2 Element C  Has Mass   12.00000
   Atom    3 Element O  Has Mass   15.99491
   Atom    4 Element N  Has Mass   14.00307
   Atom    5 Element C  Has Mass   12.00000
   Atom    6 Element Si Has Mass   27.97693
   Atom    7 Element C  Has Mass   12.00000
   Atom    8 Element C  Has Mass   12.00000
   Atom    9 Element C  Has Mass   12.00000
   Atom   10 Element H  Has Mass    1.00783
   Atom   11 Element H  Has Mass    1.00783
   Atom   12 Element H  Has Mass    1.00783
   Atom   13 Element H  Has Mass    1.00783
   Atom   14 Element H  Has Mass    1.00783
   Atom   15 Element H  Has Mass    1.00783
   Atom   16 Element H  Has Mass    1.00783
   Atom   17 Element H  Has Mass    1.00783
   Atom   18 Element H  Has Mass    1.00783
   Atom   19 Element H  Has Mass    1.00783
   Atom   20 Element H  Has Mass    1.00783
   Atom   21 Element H  Has Mass    1.00783
   Atom   22 Element H  Has Mass    1.00783
   Atom   23 Element H  Has Mass    1.00783
   Atom   24 Element H  Has Mass    1.00783
   Molecular Mass:   145.092360 amu
   Principal axes and moments of inertia in amu*Bohr^2:
                             1           2           3
    Eigenvalues --      790.60748  2417.29126  2537.22820
          X               0.99977    -0.01935     0.00973
          Y               0.01947     0.99972    -0.01309
          Z              -0.00947     0.01327     0.99987
   Rotational Symmetry Number is   1
   The Molecule is an Asymmetric Top
   Translational Enthalpy:        0.889 kcal/mol
   Rotational Enthalpy:           0.889 kcal/mol
   Vibrational Enthalpy:        135.597 kcal/mol
   gas constant (RT):             0.592 kcal/mol
   Translational Entropy:        40.827  cal/mol.K
   Rotational Entropy:           29.962  cal/mol.K
   Vibrational Entropy:          48.421  cal/mol.K

   Total Enthalpy:              137.967 kcal/mol
   Total Entropy:               119.211  cal/mol.K
Archival summary:
1\1\mm2.localdomain\FREQ\MP2\6-311+G**\i111615\xuedong\SatJul1107:21:012020SatJul1107:21:012020\0\\#,FREQ,MP2,6-311+G**,\\0,1\Si\C,1,1.87413\H,2,1.09393,1,111.174\H,2,1.09457,1,110.959,3,-119.22,0\H,2,1.09565,1,110.913,3,120.857,0\C,1,1.87958,2,111.158,3,-60.135,0\H,6,1.09503,1,111.098,2,58.9284,0\H,6,1.09522,1,111.441,2,179.265,0\H,6,1.09523,1,110.989,2,-60.8045,0\C,1,1.88281,2,109.87,3,177.776,0\H,10,1.09538,1,111.056,2,60.3736,0\H,10,1.09557,1,111.538,2,-179.687,0\H,10,1.09562,1,111.264,2,-59.0083,0\C,1,1.90271,2,108.998,3,59.757,0\H,14,1.09504,1,110.315,2,-62.7986,0\H,14,1.09658,1,111.545,2,178.148,0\N,14,1.4636,1,112.119,2,56.1854,0\H,17,1.00839,14,119.27,1,82.2851,0\C,17,1.36556,14,121.761,1,-92.5605,0\O,19,1.22778,17,122.44,14,-2.40589,0\C,19,1.51727,17,115.404,14,177.272,0\H,21,1.09193,19,108.456,17,128.233,0\H,21,1.09298,19,113.358,17,6.59398,0\H,21,1.09313,19,108.556,17,-114.869,0\\HF=-654.344325\MP2=-655.728589\\@

 Total job time:  34558.32s(wall), 72974.84s(cpu) 
 Sat Jul 11 07:21:01 2020

        *************************************************************
        *                                                           *
        *  Thank you very much for using Q-Chem.  Have a nice day.  *
        *                                                           *
        *************************************************************


