
Running Job 1 of 2 26.freq.qcinp
qchem 26.freq.qcinp_16126.0 /scratch/xuedong/qchem16126/ 1
/home/qwang/software/qchem5.1/exe/qcprog.exe_s 26.freq.qcinp_16126.0 /scratch/xuedong/qchem16126/
Check license passed

                  Welcome to Q-Chem
     A Quantum Leap Into The Future Of Chemistry


 Q-Chem 5.1, Q-Chem, Inc., Pleasanton, CA (2018)

 Yihan Shao,  Zhengting Gan,  E. Epifanovsky,  A. T. B. Gilbert,  M. Wormit,  
 J. Kussmann,  A. W. Lange,  A. Behn,  Jia Deng,  Xintian Feng,  D. Ghosh,  
 M. Goldey,  P. R. Horn,  L. D. Jacobson,  I. Kaliman,  T. Kus,  A. Landau,  
 Jie Liu,  E. I. Proynov,  R. M. Richard,  R. P. Steele,  E. J. Sundstrom,  
 H. L. Woodcock III,  P. M. Zimmerman,  D. Zuev,  B. Albrecht,  E. Alguire,  
 S. A. Baeppler,  D. Barton,  Z. Benda,  Y. A. Bernard,  E. J. Berquist,  
 K. B. Bravaya,  H. Burton,  D. Casanova,  Chun-Min Chang,  Yunqing Chen,  
 A. Chien,  K. D. Closser,  M. P. Coons,  S. Coriani,  S. Dasgupta,  
 A. L. Dempwolff,  M. Diedenhofen,  Hainam Do,  R. G. Edgar,  Po-Tung Fang,  
 S. Faraji,  S. Fatehi,  Qingguo Feng,  K. D. Fenk,  J. Fosso-Tande,  
 Qinghui Ge,  A. Ghysels,  G. Gidofalvi,  J. Gomes,  J. Gonthier,  A. Gunina,  
 D. Hait,  M. W. D. Hanson-Heine,  P. H. P. Harbach,  A. W. Hauser,  
 J. E. Herr,  E. G. Hohenstein,  Z. C. Holden,  Kerwin Hui,  B. C. Huynh,  
 T.-C. Jagau,  Hyunjun Ji,  B. Kaduk,  K. Khistyaev,  Jaehoon Kim,  
 P. Klunzinger,  K. Koh,  D. Kosenkov,  L. Koulias,  T. Kowalczyk,  
 C. M. Krauter,  A. Kunitsa,  Ka Un Lao,  A. Laurent,  K. V. Lawler,  
 Joonho Lee,  D. Lefrancois,  S. Lehtola,  D. S. Levine,  Yi-Pei Li,  
 You-Sheng Lin,  Fenglai Liu,  E. Livshits,  A. Luenser,  P. Manohar,  
 E. Mansoor,  S. F. Manzer,  Shan-Ping Mao,  Yuezhi Mao,  N. Mardirossian,  
 A. V. Marenich,  T. Markovich,  L. A. Martinez-Martinez,  S. A. Maurer,  
 N. J. Mayhall,  S. C. McKenzie,  J.-M. Mewes,  A. F. Morrison,  
 J. W. Mullinax,  K. Nanda,  T. S. Nguyen-Beck,  R. Olivares-Amaya,  
 J. A. Parkhill,  T. M. Perrine,  F. Plasser,  P. Pokhilko,  S. Prager,  
 A. Prociuk,  E. Ramos,  D. R. Rehn,  F. Rob,  M. Schneider,  N. Sergueev,  
 S. M. Sharada,  S. Sharma,  D. W. Small,  T. Stauch,  T. Stein,  
 Yu-Chuan Su,  A. J. W. Thom,  A. Tkatchenko,  T. Tsuchimochi,  N. M. Tubman,  
 L. Vogt,  M. L. Vidal,  O. Vydrov,  M. A. Watson,  J. Wenzel,  
 M. de Wergifosse,  T. A. Wesolowski,  A. White,  J. Witte,  A. Yamada,  
 Jun Yang,  K. Yao,  S. Yeganeh,  S. R. Yost,  Zhi-Qiang You,  A. Zech,  
 Igor Ying Zhang,  Xing Zhang,  Yan Zhao,  Ying Zhu,  B. R. Brooks,  
 G. K. L. Chan,  C. J. Cramer,  M. S. Gordon,  W. J. Hehre,  A. Klamt,  
 M. W. Schmidt,  C. D. Sherrill,  D. G. Truhlar,  A. Aspuru-Guzik,  R. Baer,  
 A. T. Bell,  N. A. Besley,  Jeng-Da Chai,  R. A. DiStasio Jr.,  A. Dreuw,  
 B. D. Dunietz,  T. R. Furlani,  Chao-Ping Hsu,  Yousung Jung,  Jing Kong,  
 D. S. Lambrecht,  WanZhen Liang,  C. Ochsenfeld,  V. A. Rassolov,  
 L. V. Slipchenko,  J. E. Subotnik,  T. Van Voorhis,  J. M. Herbert,  
 A. I. Krylov,  P. M. W. Gill,  M. Head-Gordon

 Contributors to earlier versions of Q-Chem not listed above: 
 R. D. Adamson,  B. Austin,  J. Baker,  G. J. O. Beran,  K. Brandhorst,  
 S. T. Brown,  E. F. C. Byrd,  A. K. Chakraborty,  C.-L. Cheng,  
 Siu Hung Chien,  D. M. Chipman,  D. L. Crittenden,  H. Dachsel,  
 R. J. Doerksen,  A. D. Dutoi,  L. Fusti-Molnar,  W. A. Goddard III,  
 A. Golubeva-Zadorozhnaya,  S. R. Gwaltney,  G. Hawkins,  A. Heyden,  
 S. Hirata,  G. Kedziora,  F. J. Keil,  C. Kelley,  Jihan Kim,  R. A. King,  
 R. Z. Khaliullin,  P. P. Korambath,  W. Kurlancheek,  A. M. Lee,  M. S. Lee,  
 S. V. Levchenko,  Ching Yeh Lin,  D. Liotard,  R. C. Lochan,  I. Lotan,  
 P. E. Maslen,  N. Nair,  D. P. O'Neill,  D. Neuhauser,  E. Neuscamman,  
 C. M. Oana,  R. Olson,  B. Peters,  R. Peverati,  P. A. Pieniazek,  
 Y. M. Rhee,  J. Ritchie,  M. A. Rohrdanz,  E. Rosta,  N. J. Russ,  
 H. F. Schaefer III,  N. E. Schultz,  N. Shenvi,  A. C. Simmonett,  A. Sodt,  
 D. Stuck,  K. S. Thanthiriwatte,  V. Vanovschi,  Tao Wang,  A. Warshel,  
 C. F. Williams,  Q. Wu,  X. Xu,  W. Zhang

 Please cite Q-Chem as follows:
 Y. Shao et al., Mol. Phys. 113, 184-215 (2015)
 DOI: 10.1080/00268976.2014.952696

 Q-Chem 5.1.0 for Intel X86 EM64T Linux

 Parts of Q-Chem use Armadillo 8.300.2 (Tropical Shenanigans).
 http://arma.sourceforge.net/

 Q-Chem begins on Wed May 15 10:20:49 2019  

Host: 
0

     Scratch files written to /scratch/xuedong/qchem16126//
 May118 |scratch|qcdevops|jenkins|workspace|build_RNUM 6581   
Processing $rem in /home/qwang/software/qchem5.1/config/preferences.
 MEM_TOTAL  2000 
Core orbitals will be frozen

Checking the input file for inconsistencies... 	...done.

--------------------------------------------------------------
User input:
--------------------------------------------------------------
$molecule
0 1
H       2.051  -0.610   1.057
Si       1.630   0.002  -0.004
H       2.064   1.220   0.000
H       2.064  -0.611  -1.057
N      -0.035   0.014  -0.024
H      -0.342   0.462   0.842
H      -0.342  -0.960   0.021
$end

$rem
JOBTYPE  =  opt
METHOD  =  MP2
BASIS  =  6-311G+(d,p)
SCF_MAX_CYCLES  =  200
GEOM_OPT_MAX_CYCLES  =  300
GEOM_OPT_TOL_DISPLACEMENT = 120
GEOM_OPT_TOL_ENERGY = 10
GEOM_OPT_TOL_GRADIENT = 20
$end
--------------------------------------------------------------
 ----------------------------------------------------------------
             Standard Nuclear Orientation (Angstroms)
    I     Atom           X                Y                Z
 ----------------------------------------------------------------
    1      H       0.8826704833     0.0015392960     1.2590390914
    2      Si      0.5513244815     0.0000166384     0.0069554246
    3      H       1.0276913079     1.0565278309    -0.5664159619
    4      H       1.0282342198    -1.0576639294    -0.5647113646
    5      N      -1.1076326211    -0.0001316467    -0.1366771264
    6      H      -1.4520693969     0.8211364992     0.3651106175
    7      H      -1.4516410077    -0.8208511077     0.3663415575
 ----------------------------------------------------------------
 Molecular Point Group                 C1    NOp =  1
 Largest Abelian Subgroup              C1    NOp =  1
 Nuclear Repulsion Energy =    69.1038288072 hartrees
 There are       13 alpha and       13 beta electrons
 Requested basis set is 6-311+G(d,p)
 There are 39 shells and 82 basis functions

 Total QAlloc Memory Limit   2000 MB
 Mega-Array Size       188 MB
 MEM_STATIC part       192 MB
 A cutoff of  1.0D-11 yielded    780 shell pairs
 There are      3483 function pairs (      3660 Cartesian)
 
 -------------------------------------------------------
 OpenMP Integral Computing Module                       
 Release: version 1.0, May 2013, Q-Chem Inc. Pittsburgh 
 -------------------------------------------------------
 Integral Job Info:
 Integral job number is                      11
 Integral operator is                         1
 short-range coefficients                     0
 long-range coefficients              100000000
 Omega coefficients                           0
 if combine SR and LR in K                    0
 Integral screening is                        0
 Integral computing path is                   2
 max size of driver memory is            800000
 size of driver memory is                593474
 size of scratch memory is              4204008
 max col of scratch BK array               1296
 max len of scratch array in speh3          155
 max len of scratch index in speh4           18
 max int batch size is                      520
 min int batch size is                       52
 fixed nKL is                                52
 max L of basis functions is                  2
 order of int derivative is                   0
 number of shells is                         39
 number of basis is                          84
 number of cartesian basis is                84
 number of contracted shell pairs           780
 number of primitive shell pairs           1971
 maxK2 (contraction) of shell pair           36
 max number of K2 of shell pair               1
 max number of CS2 of shell pair            116
 max number of PS2 of shell pair            261
 mem total for path MDJ                  509576
 -------------------------------------------------------
 Smallest overlap matrix eigenvalue = 1.47E-03

 Scale SEOQF with 1.000000e-01/1.000000e-01/1.000000e-01

 Standard Electronic Orientation quadrupole field applied
 Nucleus-field energy     =     0.0000000007 hartrees
 Guess from superposition of atomic densities
 Warning:  Energy on first SCF cycle will be non-variational
 SAD guess density has 26.000000 electrons

 -----------------------------------------------------------------------
  General SCF calculation program by
  Eric Jon Sundstrom, Paul Horn, Yuezhi Mao, Dmitri Zuev, Alec White,
  David Stuck, Shaama M.S., Shane Yost, Joonho Lee, David Small,
  Daniel Levine, Susi Lehtola, Hugh Burton, Evgeny Epifanovsky
 -----------------------------------------------------------------------
 Hartree-Fock
 using 4 threads for integral computing
 -------------------------------------------------------
 OpenMP Integral computing Module                
 Release: version 1.0, May 2013, Q-Chem Inc. Pittsburgh 
 -------------------------------------------------------
 A restricted SCF calculation will be
 performed using DIIS
 SCF converges when DIIS error is below 1.0e-08
 ---------------------------------------
  Cycle       Energy         DIIS error
 ---------------------------------------
    1    -346.8326029742      7.45e-02  
    2    -346.2358550097      6.12e-03  
    3    -346.2676333610      2.75e-03  
    4    -346.2733354891      7.11e-04  
    5    -346.2739634068      1.12e-04  
    6    -346.2739917129      2.96e-05  
    7    -346.2739941776      6.31e-06  
    8    -346.2739942994      1.24e-06  
    9    -346.2739943041      2.65e-07  
   10    -346.2739943043      6.70e-08  
   11    -346.2739943043      1.74e-08  
   12    -346.2739943044      3.52e-09  Convergence criterion met
 ---------------------------------------
 SCF time:   CPU 3.71s  wall 1.00s 
 SCF   energy in the final basis set =     -346.2739943044
 Total energy in the final basis set =     -346.2739943044
 
 Components of the MP2 correlation energy:
        aaaa  correlation energy =        -0.0307266246 au
        abab  correlation energy =        -0.2388718968 au
        bbbb  correlation energy =        -0.0307266246 au
        non-Brillouin singles    =        -0.0000000000 au

 Total  MP2   correlation energy =                    -0.30032515 au
        MP2         total energy =                  -346.57431945 au
  Entering Z-vector solver.
   1         0           1      0.000181    0.000181
   2         0           1      0.000072    0.000072
   3         0           1      0.000015    0.000015
   4         0           1      0.000004    0.000004
   5         1           0      0.000000    0.000000    Roots Converged
 
 --------------------------------------------------------------
 
                    Orbital Energies (a.u.)
 --------------------------------------------------------------
 
 Alpha MOs
 -- Occupied --
-68.721 -15.530  -6.085  -4.192  -4.192  -4.191  -1.150  -0.750
 -0.654  -0.563  -0.518  -0.501  -0.417
 -- Virtual --
  0.057   0.067   0.076   0.082   0.161   0.174   0.189   0.208
  0.209   0.223   0.269   0.275   0.307   0.353   0.366   0.369
  0.493   0.540   0.557   0.626   0.646   0.682   0.781   0.849
  0.855   0.985   0.996   1.038   1.230   1.236   1.298   1.327
  1.395   1.416   1.488   1.496   1.539   1.584   1.778   1.812
  1.881   1.985   2.006   2.024   2.049   2.216   2.376   2.461
  2.660   2.686   2.804   2.816   2.883   2.936   2.999   3.023
  3.046   3.195   3.271   3.452   4.439   4.776   5.153   6.304
 12.512  12.544  12.550  36.969 144.169
 --------------------------------------------------------------
 
          Ground-State Mulliken Net Atomic Charges

     Atom                 Charge (a.u.)
  ----------------------------------------
      1 H                    -0.223987
      2 Si                    0.934076
      3 H                    -0.206874
      4 H                    -0.206819
      5 N                    -0.777114
      6 H                     0.240400
      7 H                     0.240318
  ----------------------------------------
  Sum of atomic charges =    -0.000000

 -----------------------------------------------------------------
                    Cartesian Multipole Moments
 -----------------------------------------------------------------
    Charge (ESU x 10^10)
                 0.0000
    Dipole Moment (Debye)
         X      -0.0545      Y       0.0006      Z       1.4385
       Tot       1.4396
    Quadrupole Moments (Debye-Ang)
        XX     -21.9403     XY      -0.0031     YY     -20.1075
        XZ      -2.9568     YZ      -0.0028     ZZ     -23.2211
    Octopole Moments (Debye-Ang^2)
       XXX      -0.6130    XXY       0.0062    XYY      -4.9163
       YYY       0.0059    XXZ       4.5557    XYZ       0.0029
       YYZ       2.3447    XZZ      -0.8046    YZZ      -0.0049
       ZZZ      -0.6621
    Hexadecapole Moments (Debye-Ang^3)
      XXXX    -124.3874   XXXY      -0.0093   XXYY     -26.3217
      XYYY      -0.0009   YYYY     -43.6142   XXXZ      -8.4761
      XXYZ      -0.0053   XYYZ      -0.9513   YYYZ      -0.0036
      XXZZ     -31.9765   XYZZ      -0.0035   YYZZ     -14.8019
      XZZZ      -5.0043   YZZZ      -0.0058   ZZZZ     -47.3415
 -----------------------------------------------------------------
 DrvMan is completing analytic gradient of the MP2 energy
 MP2 relaxed dipole moment
            1
    1  -0.0214390
    2   0.0002396
    3   0.5659602
	Magnitude:	 0.566 au	 1.440 Debye
 MP2 energy read as -346.574319
 Full Analytical Gradient of MP2 Energy (in au.)
             1             2             3             4             5
    1   -0.03343900    0.04366608   -0.03902917   -0.03891920    0.05016530
    2   -0.00009521    0.00023626   -0.08715769    0.08697076    0.00004610
    3   -0.10212031    0.00811900    0.04601758    0.04569617   -0.01003769
             6             7
    1    0.00876276    0.00879323
    2    0.00567241   -0.00567262
    3    0.00615582    0.00616942
 Gradient time:  CPU 0.10 s  wall 0.10 s
 Geometry Optimization Parameters
   NAtoms,    NIC,     NZ,  NCons,   NDum,   NFix, NCnnct, MaxDiis
        7      35       0       0       0       0       0       0


** GEOMETRY OPTIMIZATION IN DELOCALIZED INTERNAL COORDINATES **
   Searching for a Minimum

   Optimization Cycle:   1

                       Coordinates (Angstroms)
     ATOM                X               Y               Z
      1  H         0.8826704833    0.0015392960    1.2590390914
      2  Si        0.5513244815    0.0000166384    0.0069554246
      3  H         1.0276913079    1.0565278309   -0.5664159619
      4  H         1.0282342198   -1.0576639294   -0.5647113646
      5  N        -1.1076326211   -0.0001316467   -0.1366771264
      6  H        -1.4520693969    0.8211364992    0.3651106175
      7  H        -1.4516410077   -0.8208511077    0.3663415575
   Point Group: c1    Number of degrees of freedom:    15


   Energy is   -346.574319450


 Attempting to Generate Delocalized Internal Coordinates

 15 Hessian modes will be used to form the next step
  Hessian Eigenvalues:
     0.023898    0.061137    0.084257    0.084777    0.160000    0.160000
     0.160000    0.160000    0.160000    0.303583    0.305290    0.305679
     0.404322    0.439845    0.439877

 Minimum Search - Taking Simple RFO Step
 Searching for Lamda that Minimizes Along All modes
 Value Taken    Lamda =  -0.09743056
 Calculated Step too Large.  Step scaled by  0.606507
 Step Taken.  Stepsize is  0.300000

                             Maximum     Tolerance    Cnvgd?
         Gradient           0.141247      0.000020      NO
         Displacement       0.216198      0.000120      NO
         Energy change     *********      0.000000      NO


 New Cartesian Coordinates Obtained by Inverse Iteration

 Displacement from previous Coordinates is:  0.367314
 ----------------------------------------------------------------
             Standard Nuclear Orientation (Angstroms)
    I     Atom           X                Y                Z
 ----------------------------------------------------------------
    1      H       0.9605692019     0.0015956945     1.3364478032
    2      Si      0.5651616701     0.0000467681     0.0132198930
    3      H       1.0643883970     1.1257056449    -0.6039792543
    4      H       1.0647686023    -1.1267830009    -0.6020160506
    5      N      -1.1376696491    -0.0001726370    -0.1251766138
    6      H      -1.5195019432     0.8140358318     0.3549652846
    7      H      -1.5191388123    -0.8138547208     0.3561811761
 ----------------------------------------------------------------
 Molecular Point Group                 C1    NOp =  1
 Largest Abelian Subgroup              C1    NOp =  1
 Nuclear Repulsion Energy =    66.7835292568 hartrees
 There are       13 alpha and       13 beta electrons
 Applying Cartesian multipole field
    Component          Value
    ---------          -----
     (2,0,0)        1.00000E-11
     (0,2,0)        2.00000E-11
     (0,0,2)       -3.00000E-11
 Nucleus-field energy     =     0.0000000007 hartrees
 Requested basis set is 6-311+G(d,p)
 There are 39 shells and 82 basis functions
 A cutoff of  1.0D-11 yielded    779 shell pairs
 There are      3482 function pairs (      3659 Cartesian)
 Smallest overlap matrix eigenvalue = 1.65E-03
 Guess MOs from SCF MO coefficient file
 Reading MOs from coefficient file
 Reading MOs from coefficient file

 -----------------------------------------------------------------------
  General SCF calculation program by
  Eric Jon Sundstrom, Paul Horn, Yuezhi Mao, Dmitri Zuev, Alec White,
  David Stuck, Shaama M.S., Shane Yost, Joonho Lee, David Small,
  Daniel Levine, Susi Lehtola, Hugh Burton, Evgeny Epifanovsky
 -----------------------------------------------------------------------
 Hartree-Fock
 using 4 threads for integral computing
 -------------------------------------------------------
 OpenMP Integral computing Module                
 Release: version 1.0, May 2013, Q-Chem Inc. Pittsburgh 
 -------------------------------------------------------
 A restricted SCF calculation will be
 performed using DIIS
 SCF converges when DIIS error is below 1.0e-08
 ---------------------------------------
  Cycle       Energy         DIIS error
 ---------------------------------------
    1    -346.2601467498      6.37e-03  
    2    -346.3166837272      5.92e-04  
    3    -346.3169481290      1.36e-04  
    4    -346.3169677925      5.04e-05  
    5    -346.3169714049      2.10e-05  
    6    -346.3169721522      4.96e-06  
    7    -346.3169722195      1.12e-06  
    8    -346.3169722226      2.57e-07  
    9    -346.3169722227      5.79e-08  
   10    -346.3169722227      1.28e-08  
   11    -346.3169722227      2.62e-09  Convergence criterion met
 ---------------------------------------
 SCF time:   CPU 2.98s  wall 1.00s 
 SCF   energy in the final basis set =     -346.3169722227
 Total energy in the final basis set =     -346.3169722227
 
 Components of the MP2 correlation energy:
        aaaa  correlation energy =        -0.0305317705 au
        abab  correlation energy =        -0.2383357158 au
        bbbb  correlation energy =        -0.0305317705 au
        non-Brillouin singles    =        -0.0000000000 au

 Total  MP2   correlation energy =                    -0.29939926 au
        MP2         total energy =                  -346.61637148 au
  Entering Z-vector solver.
   1         0           1      0.000188    0.000188
   2         0           1      0.000073    0.000073
   3         0           1      0.000017    0.000017
   4         0           1      0.000004    0.000004
   5         0           1      0.000001    0.000001
   6         1           0      0.000000    0.000000    Roots Converged
 
 --------------------------------------------------------------
 
                    Orbital Energies (a.u.)
 --------------------------------------------------------------
 
 Alpha MOs
 -- Occupied --
-68.751 -15.535  -6.105  -4.212  -4.212  -4.212  -1.144  -0.736
 -0.650  -0.558  -0.508  -0.491  -0.414
 -- Virtual --
  0.057   0.068   0.077   0.083   0.157   0.171   0.188   0.203
  0.203   0.220   0.269   0.272   0.294   0.339   0.367   0.370
  0.486   0.529   0.545   0.609   0.650   0.681   0.760   0.842
  0.848   0.977   1.008   1.043   1.169   1.172   1.239   1.321
  1.406   1.427   1.490   1.497   1.535   1.567   1.773   1.774
  1.897   1.953   1.959   1.968   2.014   2.202   2.283   2.402
  2.550   2.553   2.777   2.804   2.867   2.920   2.984   2.986
  3.043   3.127   3.247   3.450   4.405   4.766   5.150   6.284
 12.429  12.430  12.438  36.966 144.116
 --------------------------------------------------------------
 
          Ground-State Mulliken Net Atomic Charges

     Atom                 Charge (a.u.)
  ----------------------------------------
      1 H                    -0.208877
      2 Si                    0.889927
      3 H                    -0.189856
      4 H                    -0.189835
      5 N                    -0.790193
      6 H                     0.244441
      7 H                     0.244392
  ----------------------------------------
  Sum of atomic charges =    -0.000000

 -----------------------------------------------------------------
                    Cartesian Multipole Moments
 -----------------------------------------------------------------
    Charge (ESU x 10^10)
                 0.0000
    Dipole Moment (Debye)
         X      -0.1989      Y       0.0006      Z       1.3762
       Tot       1.3905
    Quadrupole Moments (Debye-Ang)
        XX     -21.9361     XY      -0.0030     YY     -20.5540
        XZ      -2.9793     YZ      -0.0029     ZZ     -23.7285
    Octopole Moments (Debye-Ang^2)
       XXX      -2.7843    XXY       0.0050    XYY      -5.3168
       YYY       0.0043    XXZ       4.3830    XYZ       0.0032
       YYZ       2.1653    XZZ      -1.1537    YZZ      -0.0053
       ZZZ      -1.1747
    Hexadecapole Moments (Debye-Ang^3)
      XXXX    -130.9398   XXXY      -0.0123   XXYY     -28.0309
      XYYY      -0.0038   YYYY     -47.2454   XXXZ      -9.1621
      XXYZ      -0.0058   XYYZ      -1.0218   YYYZ      -0.0030
      XXZZ     -34.3164   XYZZ      -0.0047   YYZZ     -16.0387
      XZZZ      -5.1132   YZZZ      -0.0052   ZZZZ     -51.1418
 -----------------------------------------------------------------
 DrvMan is completing analytic gradient of the MP2 energy
 MP2 relaxed dipole moment
            1
    1  -0.0782557
    2   0.0002430
    3   0.5414573
	Magnitude:	 0.547 au	 1.391 Debye
 MP2 energy read as -346.616371
 Full Analytical Gradient of MP2 Energy (in au.)
             1             2             3             4             5
    1   -0.01741885    0.01900852   -0.01642936   -0.01638521    0.02106650
    2   -0.00003397    0.00007005   -0.03873936    0.03867733    0.00002824
    3   -0.04472961    0.00380185    0.02034567    0.02020383   -0.01060118
             6             7
    1    0.00507165    0.00508675
    2    0.00265779   -0.00266008
    3    0.00548469    0.00549474
 Gradient time:  CPU 0.11 s  wall 0.10 s
 Geometry Optimization Parameters
   NAtoms,    NIC,     NZ,  NCons,   NDum,   NFix, NCnnct, MaxDiis
        7      35       0       0       0       0       0       0

 Cartesian Hessian Update
 Hessian Updated using BFGS Update


** GEOMETRY OPTIMIZATION IN DELOCALIZED INTERNAL COORDINATES **
   Searching for a Minimum

   Optimization Cycle:   2

                       Coordinates (Angstroms)
     ATOM                X               Y               Z
      1  H         0.9605692019    0.0015956945    1.3364478032
      2  Si        0.5651616701    0.0000467681    0.0132198930
      3  H         1.0643883970    1.1257056449   -0.6039792543
      4  H         1.0647686023   -1.1267830009   -0.6020160506
      5  N        -1.1376696491   -0.0001726370   -0.1251766138
      6  H        -1.5195019432    0.8140358318    0.3549652846
      7  H        -1.5191388123   -0.8138547208    0.3561811761
   Point Group: c1    Number of degrees of freedom:    15


   Energy is   -346.616371480

 Hessian Updated using BFGS Update

 12 Hessian modes will be used to form the next step
  Hessian Eigenvalues:
     0.023898    0.060989    0.084257    0.084775    0.158959    0.160312
     0.304154    0.305492    0.362617    0.408845    0.439788    0.439864

 Minimum Search - Taking Simple RFO Step
 Searching for Lamda that Minimizes Along All modes
 Value Taken    Lamda =  -0.02188789
 Step Taken.  Stepsize is  0.264896

                             Maximum     Tolerance    Cnvgd?
         Gradient           0.064045      0.000020      NO
         Displacement       0.177826      0.000120      NO
         Energy change     -0.042052      0.000000      NO


 New Cartesian Coordinates Obtained by Inverse Iteration

 Displacement from previous Coordinates is:  0.361781
 ----------------------------------------------------------------
             Standard Nuclear Orientation (Angstroms)
    I     Atom           X                Y                Z
 ----------------------------------------------------------------
    1      H       1.0692451619     0.0016139343     1.3941741038
    2      Si      0.5841476003     0.0001247389     0.0313473520
    3      H       1.0827287535     1.1803315326    -0.6266805408
    4      H       1.0830022512    -1.1813539103    -0.6244646624
    5      N      -1.1548958831    -0.0002023945    -0.1016413559
    6      H      -1.5929731355     0.8093839347     0.3278625227
    7      H      -1.5926772815    -0.8093242550     0.3290448189
 ----------------------------------------------------------------
 Molecular Point Group                 C1    NOp =  1
 Largest Abelian Subgroup              C1    NOp =  1
 Nuclear Repulsion Energy =    65.0457767808 hartrees
 There are       13 alpha and       13 beta electrons
 Applying Cartesian multipole field
    Component          Value
    ---------          -----
     (2,0,0)        1.00000E-11
     (0,2,0)        2.00000E-11
     (0,0,2)       -3.00000E-11
 Nucleus-field energy     =     0.0000000008 hartrees
 Requested basis set is 6-311+G(d,p)
 There are 39 shells and 82 basis functions
 A cutoff of  1.0D-11 yielded    777 shell pairs
 There are      3480 function pairs (      3657 Cartesian)
 Smallest overlap matrix eigenvalue = 1.91E-03
 Guess MOs from SCF MO coefficient file
 Reading MOs from coefficient file
 Reading MOs from coefficient file

 -----------------------------------------------------------------------
  General SCF calculation program by
  Eric Jon Sundstrom, Paul Horn, Yuezhi Mao, Dmitri Zuev, Alec White,
  David Stuck, Shaama M.S., Shane Yost, Joonho Lee, David Small,
  Daniel Levine, Susi Lehtola, Hugh Burton, Evgeny Epifanovsky
 -----------------------------------------------------------------------
 Hartree-Fock
 using 4 threads for integral computing
 -------------------------------------------------------
 OpenMP Integral computing Module                
 Release: version 1.0, May 2013, Q-Chem Inc. Pittsburgh 
 -------------------------------------------------------
 A restricted SCF calculation will be
 performed using DIIS
 SCF converges when DIIS error is below 1.0e-08
 ---------------------------------------
  Cycle       Energy         DIIS error
 ---------------------------------------
    1    -346.2891853702      4.19e-03  
    2    -346.3309993884      5.52e-04  
    3    -346.3312803023      1.67e-04  
    4    -346.3313117115      7.11e-05  
    5    -346.3313185685      2.48e-05  
    6    -346.3313199428      5.28e-06  
    7    -346.3313200226      1.41e-06  
    8    -346.3313200275      3.49e-07  
    9    -346.3313200278      6.52e-08  
   10    -346.3313200278      1.19e-08  
   11    -346.3313200278      2.61e-09  Convergence criterion met
 ---------------------------------------
 SCF time:   CPU 3.44s  wall 1.00s 
 SCF   energy in the final basis set =     -346.3313200278
 Total energy in the final basis set =     -346.3313200278
 
 Components of the MP2 correlation energy:
        aaaa  correlation energy =        -0.0304217547 au
        abab  correlation energy =        -0.2381866681 au
        bbbb  correlation energy =        -0.0304217547 au
        non-Brillouin singles    =        -0.0000000000 au

 Total  MP2   correlation energy =                    -0.29903018 au
        MP2         total energy =                  -346.63035021 au
  Entering Z-vector solver.
   1         0           1      0.000195    0.000195
   2         0           1      0.000075    0.000075
   3         0           1      0.000018    0.000018
   4         0           1      0.000005    0.000005
   5         0           1      0.000001    0.000001
   6         1           0      0.000000    0.000000    Roots Converged
 
 --------------------------------------------------------------
 
                    Orbital Energies (a.u.)
 --------------------------------------------------------------
 
 Alpha MOs
 -- Occupied --
-68.773 -15.539  -6.121  -4.228  -4.228  -4.228  -1.138  -0.727
 -0.647  -0.555  -0.498  -0.483  -0.410
 -- Virtual --
  0.057   0.069   0.078   0.084   0.153   0.167   0.189   0.198
  0.198   0.219   0.270   0.273   0.282   0.324   0.368   0.372
  0.477   0.522   0.536   0.592   0.652   0.692   0.743   0.832
  0.852   0.964   1.023   1.045   1.121   1.127   1.192   1.313
  1.416   1.436   1.491   1.497   1.536   1.562   1.742   1.770
  1.906   1.911   1.918   1.919   2.053   2.202   2.215   2.347
  2.459   2.466   2.759   2.794   2.879   2.896   2.958   2.975
  3.037   3.075   3.238   3.451   4.377   4.761   5.156   6.248
 12.348  12.359  12.370  36.970 144.052
 --------------------------------------------------------------
 
          Ground-State Mulliken Net Atomic Charges

     Atom                 Charge (a.u.)
  ----------------------------------------
      1 H                    -0.198295
      2 Si                    0.867237
      3 H                    -0.179316
      4 H                    -0.179314
      5 N                    -0.806459
      6 H                     0.248078
      7 H                     0.248069
  ----------------------------------------
  Sum of atomic charges =     0.000000

 -----------------------------------------------------------------
                    Cartesian Multipole Moments
 -----------------------------------------------------------------
    Charge (ESU x 10^10)
                 0.0000
    Dipole Moment (Debye)
         X      -0.3930      Y       0.0008      Z       1.2710
       Tot       1.3304
    Quadrupole Moments (Debye-Ang)
        XX     -21.6121     XY      -0.0024     YY     -20.8970
        XZ      -2.8410     YZ      -0.0029     ZZ     -24.1825
    Octopole Moments (Debye-Ang^2)
       XXX      -5.8062    XXY       0.0032    XYY      -5.8202
       YYY       0.0017    XXZ       3.6549    XYZ       0.0032
       YYZ       1.7687    XZZ      -1.5139    YZZ      -0.0060
       ZZZ      -2.2766
    Hexadecapole Moments (Debye-Ang^3)
      XXXX    -135.1803   XXXY      -0.0144   XXYY     -29.3680
      XYYY      -0.0068   YYYY     -50.2798   XXXZ      -9.7672
      XXYZ      -0.0066   XYYZ      -1.1343   YYYZ      -0.0022
      XXZZ     -36.4744   XYZZ      -0.0059   YYZZ     -17.0467
      XZZZ      -5.3767   YZZZ      -0.0046   ZZZZ     -54.1064
 -----------------------------------------------------------------
 DrvMan is completing analytic gradient of the MP2 energy
 MP2 relaxed dipole moment
            1
    1  -0.1546030
    2   0.0003334
    3   0.5000659
	Magnitude:	 0.523 au	 1.330 Debye
 MP2 energy read as -346.630350
 Full Analytical Gradient of MP2 Energy (in au.)
             1             2             3             4             5
    1   -0.00592404    0.01053174   -0.00447481   -0.00445812    0.00191125
    2   -0.00000794    0.00003607   -0.01201617    0.01198351    0.00000122
    3   -0.01335145    0.00225435    0.00616970    0.00611537   -0.00909320
             6             7
    1    0.00120553    0.00120844
    2   -0.00039506    0.00039837
    3    0.00395251    0.00395273
 Gradient time:  CPU 0.11 s  wall 0.10 s
 Geometry Optimization Parameters
   NAtoms,    NIC,     NZ,  NCons,   NDum,   NFix, NCnnct, MaxDiis
        7      35       0       0       0       0       0       0

 Cartesian Hessian Update
 Hessian Updated using BFGS Update


** GEOMETRY OPTIMIZATION IN DELOCALIZED INTERNAL COORDINATES **
   Searching for a Minimum

   Optimization Cycle:   3

                       Coordinates (Angstroms)
     ATOM                X               Y               Z
      1  H         1.0692451619    0.0016139343    1.3941741038
      2  Si        0.5841476003    0.0001247389    0.0313473520
      3  H         1.0827287535    1.1803315326   -0.6266805408
      4  H         1.0830022512   -1.1813539103   -0.6244646624
      5  N        -1.1548958831   -0.0002023945   -0.1016413559
      6  H        -1.5929731355    0.8093839347    0.3278625227
      7  H        -1.5926772815   -0.8093242550    0.3290448189
   Point Group: c1    Number of degrees of freedom:    15


   Energy is   -346.630350205

 Hessian Updated using BFGS Update

 13 Hessian modes will be used to form the next step
  Hessian Eigenvalues:
     0.023898    0.058375    0.084257    0.084813    0.155080    0.160011
     0.160533    0.288885    0.304592    0.305504    0.409612    0.439799
     0.439865

 Minimum Search - Taking Simple RFO Step
 Searching for Lamda that Minimizes Along All modes
 Value Taken    Lamda =  -0.00334546
 Step Taken.  Stepsize is  0.159001

                             Maximum     Tolerance    Cnvgd?
         Gradient           0.019243      0.000020      NO
         Displacement       0.082889      0.000120      NO
         Energy change     -0.013979      0.000000      NO


 New Cartesian Coordinates Obtained by Inverse Iteration

 Displacement from previous Coordinates is:  0.176133
 ----------------------------------------------------------------
             Standard Nuclear Orientation (Angstroms)
    I     Atom           X                Y                Z
 ----------------------------------------------------------------
    1      H       1.1241993170     0.0015954669     1.4196644090
    2      Si      0.5911951981     0.0001490242     0.0430194177
    3      H       1.0804931261     1.2078200450    -0.6347016766
    4      H       1.0807548730    -1.2087951547    -0.6323313504
    5      N      -1.1549972272    -0.0002004365    -0.0787891896
    6      H      -1.6216706345     0.8139703516     0.3057981651
    7      H      -1.6213971857    -0.8139657157     0.3069824629
 ----------------------------------------------------------------
 Molecular Point Group                 C1    NOp =  1
 Largest Abelian Subgroup              C1    NOp =  1
 Nuclear Repulsion Energy =    64.4911591060 hartrees
 There are       13 alpha and       13 beta electrons
 Applying Cartesian multipole field
    Component          Value
    ---------          -----
     (2,0,0)        1.00000E-11
     (0,2,0)        2.00000E-11
     (0,0,2)       -3.00000E-11
 Nucleus-field energy     =     0.0000000008 hartrees
 Requested basis set is 6-311+G(d,p)
 There are 39 shells and 82 basis functions
 A cutoff of  1.0D-11 yielded    777 shell pairs
 There are      3480 function pairs (      3657 Cartesian)
 Smallest overlap matrix eigenvalue = 2.08E-03
 Guess MOs from SCF MO coefficient file
 Reading MOs from coefficient file
 Reading MOs from coefficient file

 -----------------------------------------------------------------------
  General SCF calculation program by
  Eric Jon Sundstrom, Paul Horn, Yuezhi Mao, Dmitri Zuev, Alec White,
  David Stuck, Shaama M.S., Shane Yost, Joonho Lee, David Small,
  Daniel Levine, Susi Lehtola, Hugh Burton, Evgeny Epifanovsky
 -----------------------------------------------------------------------
 Hartree-Fock
 using 4 threads for integral computing
 -------------------------------------------------------
 OpenMP Integral computing Module                
 Release: version 1.0, May 2013, Q-Chem Inc. Pittsburgh 
 -------------------------------------------------------
 A restricted SCF calculation will be
 performed using DIIS
 SCF converges when DIIS error is below 1.0e-08
 ---------------------------------------
  Cycle       Energy         DIIS error
 ---------------------------------------
    1    -346.3192452265      1.81e-03  
    2    -346.3334661068      3.14e-04  
    3    -346.3335608978      1.30e-04  
    4    -346.3335763393      4.51e-05  
    5    -346.3335794619      1.36e-05  
    6    -346.3335799392      2.89e-06  
    7    -346.3335799644      7.95e-07  
    8    -346.3335799662      2.16e-07  
    9    -346.3335799663      4.37e-08  
   10    -346.3335799663      7.85e-09  Convergence criterion met
 ---------------------------------------
 SCF time:   CPU 3.05s  wall 1.00s 
 SCF   energy in the final basis set =     -346.3335799663
 Total energy in the final basis set =     -346.3335799663
 
 Components of the MP2 correlation energy:
        aaaa  correlation energy =        -0.0303814811 au
        abab  correlation energy =        -0.2380742080 au
        bbbb  correlation energy =        -0.0303814811 au
        non-Brillouin singles    =        -0.0000000000 au

 Total  MP2   correlation energy =                    -0.29883717 au
        MP2         total energy =                  -346.63241714 au
  Entering Z-vector solver.
   1         0           1      0.000197    0.000197
   2         0           1      0.000075    0.000075
   3         0           1      0.000018    0.000018
   4         0           1      0.000005    0.000005
   5         0           1      0.000001    0.000001
   6         1           0      0.000000    0.000000    Roots Converged
 
 --------------------------------------------------------------
 
                    Orbital Energies (a.u.)
 --------------------------------------------------------------
 
 Alpha MOs
 -- Occupied --
-68.781 -15.539  -6.127  -4.234  -4.234  -4.234  -1.136  -0.723
 -0.649  -0.554  -0.494  -0.480  -0.406
 -- Virtual --
  0.058   0.069   0.078   0.085   0.151   0.165   0.189   0.195
  0.198   0.219   0.268   0.275   0.277   0.315   0.369   0.374
  0.474   0.520   0.534   0.584   0.653   0.697   0.736   0.825
  0.859   0.953   1.032   1.044   1.101   1.108   1.180   1.306
  1.422   1.441   1.495   1.495   1.538   1.571   1.730   1.773
  1.890   1.892   1.901   1.913   2.066   2.193   2.210   2.318
  2.421   2.430   2.754   2.787   2.870   2.887   2.952   2.974
  3.023   3.070   3.245   3.445   4.365   4.755   5.169   6.231
 12.316  12.329  12.352  36.973 144.024
 --------------------------------------------------------------
 
          Ground-State Mulliken Net Atomic Charges

     Atom                 Charge (a.u.)
  ----------------------------------------
      1 H                    -0.194742
      2 Si                    0.857498
      3 H                    -0.176046
      4 H                    -0.176050
      5 N                    -0.812270
      6 H                     0.250804
      7 H                     0.250805
  ----------------------------------------
  Sum of atomic charges =     0.000000

 -----------------------------------------------------------------
                    Cartesian Multipole Moments
 -----------------------------------------------------------------
    Charge (ESU x 10^10)
                -0.0000
    Dipole Moment (Debye)
         X      -0.5209      Y       0.0008      Z       1.1601
       Tot       1.2717
    Quadrupole Moments (Debye-Ang)
        XX     -21.3900     XY      -0.0021     YY     -21.0090
        XZ      -2.6581     YZ      -0.0029     ZZ     -24.4062
    Octopole Moments (Debye-Ang^2)
       XXX      -7.4628    XXY       0.0022    XYY      -6.1831
       YYY       0.0003    XXZ       2.9424    XYZ       0.0033
       YYZ       1.4821    XZZ      -1.7145    YZZ      -0.0064
       ZZZ      -3.1762
    Hexadecapole Moments (Debye-Ang^3)
      XXXX    -135.7825   XXXY      -0.0150   XXYY     -29.7160
      XYYY      -0.0078   YYYY     -51.8234   XXXZ      -9.6422
      XXYZ      -0.0067   XYYZ      -1.1371   YYYZ      -0.0013
      XXZZ     -37.3386   XYZZ      -0.0064   YYZZ     -17.5409
      XZZZ      -5.3635   YZZZ      -0.0037   ZZZZ     -55.4132
 -----------------------------------------------------------------
 DrvMan is completing analytic gradient of the MP2 energy
 MP2 relaxed dipole moment
            1
    1  -0.2049455
    2   0.0003226
    3   0.4564336
	Magnitude:	 0.500 au	 1.272 Debye
 MP2 energy read as -346.632417
 Full Analytical Gradient of MP2 Energy (in au.)
             1             2             3             4             5
    1   -0.00111241    0.00496412   -0.00076469   -0.00076015   -0.00243906
    2   -0.00000115    0.00001462   -0.00191315    0.00190103   -0.00000572
    3   -0.00207278    0.00200308    0.00079191    0.00078009   -0.00678525
             6             7
    1    0.00005585    0.00005633
    2   -0.00030983    0.00031422
    3    0.00264239    0.00264057
 Gradient time:  CPU 0.13 s  wall 0.12 s
 Geometry Optimization Parameters
   NAtoms,    NIC,     NZ,  NCons,   NDum,   NFix, NCnnct, MaxDiis
        7      35       0       0       0       0       0       0

 Cartesian Hessian Update
 Hessian Updated using BFGS Update


** GEOMETRY OPTIMIZATION IN DELOCALIZED INTERNAL COORDINATES **
   Searching for a Minimum

   Optimization Cycle:   4

                       Coordinates (Angstroms)
     ATOM                X               Y               Z
      1  H         1.1241993170    0.0015954669    1.4196644090
      2  Si        0.5911951981    0.0001490242    0.0430194177
      3  H         1.0804931261    1.2078200450   -0.6347016766
      4  H         1.0807548730   -1.2087951547   -0.6323313504
      5  N        -1.1549972272   -0.0002004365   -0.0787891896
      6  H        -1.6216706345    0.8139703516    0.3057981651
      7  H        -1.6213971857   -0.8139657157    0.3069824629
   Point Group: c1    Number of degrees of freedom:    15


   Energy is   -346.632417137

 Hessian Updated using BFGS Update

 14 Hessian modes will be used to form the next step
  Hessian Eigenvalues:
     0.023898    0.045067    0.084257    0.084823    0.151801    0.160000
     0.160015    0.160686    0.281448    0.304554    0.305500    0.424942
     0.439861    0.441598

 Minimum Search - Taking Simple RFO Step
 Searching for Lamda that Minimizes Along All modes
 Value Taken    Lamda =  -0.00049330
 Step Taken.  Stepsize is  0.097682

                             Maximum     Tolerance    Cnvgd?
         Gradient           0.004401      0.000020      NO
         Displacement       0.067364      0.000120      NO
         Energy change     -0.002067      0.000000      NO


 New Cartesian Coordinates Obtained by Inverse Iteration

 Displacement from previous Coordinates is:  0.079654
 ----------------------------------------------------------------
             Standard Nuclear Orientation (Angstroms)
    I     Atom           X                Y                Z
 ----------------------------------------------------------------
    1      H       1.1477580672     0.0015825917     1.4254065218
    2      Si      0.5923140908     0.0001506696     0.0478269382
    3      H       1.0776438241     1.2165919113    -0.6356449064
    4      H       1.0779083684    -1.2175405717    -0.6332280722
    5      N      -1.1515459135    -0.0001919014    -0.0605390103
    6      H      -1.6328847901     0.8180203826     0.2923063576
    7      H      -1.6326161802    -0.8180395015     0.2935144095
 ----------------------------------------------------------------
 Molecular Point Group                 C1    NOp =  1
 Largest Abelian Subgroup              C1    NOp =  1
 Nuclear Repulsion Energy =    64.4190932840 hartrees
 There are       13 alpha and       13 beta electrons
 Applying Cartesian multipole field
    Component          Value
    ---------          -----
     (2,0,0)        1.00000E-11
     (0,2,0)        2.00000E-11
     (0,0,2)       -3.00000E-11
 Nucleus-field energy     =     0.0000000008 hartrees
 Requested basis set is 6-311+G(d,p)
 There are 39 shells and 82 basis functions
 A cutoff of  1.0D-11 yielded    777 shell pairs
 There are      3480 function pairs (      3657 Cartesian)
 Smallest overlap matrix eigenvalue = 2.16E-03
 Guess MOs from SCF MO coefficient file
 Reading MOs from coefficient file
 Reading MOs from coefficient file

 -----------------------------------------------------------------------
  General SCF calculation program by
  Eric Jon Sundstrom, Paul Horn, Yuezhi Mao, Dmitri Zuev, Alec White,
  David Stuck, Shaama M.S., Shane Yost, Joonho Lee, David Small,
  Daniel Levine, Susi Lehtola, Hugh Burton, Evgeny Epifanovsky
 -----------------------------------------------------------------------
 Hartree-Fock
 using 4 threads for integral computing
 -------------------------------------------------------
 OpenMP Integral computing Module                
 Release: version 1.0, May 2013, Q-Chem Inc. Pittsburgh 
 -------------------------------------------------------
 A restricted SCF calculation will be
 performed using DIIS
 SCF converges when DIIS error is below 1.0e-08
 ---------------------------------------
  Cycle       Energy         DIIS error
 ---------------------------------------
    1    -346.3345957660      8.38e-04  
    2    -346.3340780646      1.85e-04  
    3    -346.3341099974      9.55e-05  
    4    -346.3341174381      2.38e-05  
    5    -346.3341186408      7.10e-06  
    6    -346.3341187867      1.48e-06  
    7    -346.3341187940      3.81e-07  
    8    -346.3341187945      9.88e-08  
    9    -346.3341187945      2.44e-08  
   10    -346.3341187945      4.89e-09  Convergence criterion met
 ---------------------------------------
 SCF time:   CPU 3.05s  wall 0.00s 
 SCF   energy in the final basis set =     -346.3341187945
 Total energy in the final basis set =     -346.3341187945
 
 Components of the MP2 correlation energy:
        aaaa  correlation energy =        -0.0303593064 au
        abab  correlation energy =        -0.2379204608 au
        bbbb  correlation energy =        -0.0303593064 au
        non-Brillouin singles    =        -0.0000000000 au

 Total  MP2   correlation energy =                    -0.29863907 au
        MP2         total energy =                  -346.63275787 au
  Entering Z-vector solver.
   1         0           1      0.000197    0.000197
   2         0           1      0.000074    0.000074
   3         0           1      0.000018    0.000018
   4         0           1      0.000005    0.000005
   5         0           1      0.000001    0.000001
   6         1           0      0.000000    0.000000    Roots Converged
 
 --------------------------------------------------------------
 
                    Orbital Energies (a.u.)
 --------------------------------------------------------------
 
 Alpha MOs
 -- Occupied --
-68.783 -15.539  -6.128  -4.236  -4.236  -4.235  -1.136  -0.723
 -0.651  -0.554  -0.492  -0.478  -0.404
 -- Virtual --
  0.058   0.069   0.079   0.085   0.151   0.165   0.188   0.194
  0.199   0.219   0.267   0.276   0.278   0.310   0.370   0.375
  0.474   0.519   0.534   0.582   0.655   0.700   0.734   0.820
  0.864   0.947   1.038   1.043   1.097   1.103   1.180   1.301
  1.426   1.442   1.490   1.498   1.540   1.579   1.726   1.780
  1.884   1.888   1.897   1.909   2.071   2.190   2.218   2.304
  2.410   2.420   2.754   2.784   2.850   2.893   2.951   2.977
  3.019   3.077   3.254   3.441   4.359   4.754   5.181   6.226
 12.307  12.321  12.351  36.977 144.016
 --------------------------------------------------------------
 
          Ground-State Mulliken Net Atomic Charges

     Atom                 Charge (a.u.)
  ----------------------------------------
      1 H                    -0.194294
      2 Si                    0.856581
      3 H                    -0.175822
      4 H                    -0.175826
      5 N                    -0.816582
      6 H                     0.252970
      7 H                     0.252972
  ----------------------------------------
  Sum of atomic charges =     0.000000

 -----------------------------------------------------------------
                    Cartesian Multipole Moments
 -----------------------------------------------------------------
    Charge (ESU x 10^10)
                -0.0000
    Dipole Moment (Debye)
         X      -0.6097      Y       0.0007      Z       1.0676
       Tot       1.2294
    Quadrupole Moments (Debye-Ang)
        XX     -21.2470     XY      -0.0021     YY     -21.0198
        XZ      -2.5189     YZ      -0.0030     ZZ     -24.4910
    Octopole Moments (Debye-Ang^2)
       XXX      -8.2838    XXY       0.0017    XYY      -6.3804
       YYY      -0.0002    XXZ       2.4649    XYZ       0.0035
       YYZ       1.3165    XZZ      -1.8076    YZZ      -0.0066
       ZZZ      -3.7426
    Hexadecapole Moments (Debye-Ang^3)
      XXXX    -135.2320   XXXY      -0.0151   XXYY     -29.6684
      XYYY      -0.0079   YYYY     -52.3183   XXXZ      -9.2759
      XXYZ      -0.0069   XYYZ      -1.0639   YYYZ      -0.0008
      XXZZ     -37.5758   XYZZ      -0.0064   YYZZ     -17.6987
      XZZZ      -5.1484   YZZZ      -0.0032   ZZZZ     -55.7212
 -----------------------------------------------------------------
 DrvMan is completing analytic gradient of the MP2 energy
 MP2 relaxed dipole moment
            1
    1  -0.2398835
    2   0.0002861
    3   0.4200081
	Magnitude:	 0.484 au	 1.229 Debye
 MP2 energy read as -346.632758
 Full Analytical Gradient of MP2 Energy (in au.)
             1             2             3             4             5
    1    0.00036180    0.00181537    0.00026754    0.00026767   -0.00266343
    2    0.00000062    0.00000278    0.00089271   -0.00089434   -0.00000432
    3    0.00099415    0.00133391   -0.00057614   -0.00057348   -0.00459226
             6             7
    1   -0.00002430   -0.00002465
    2   -0.00021573    0.00021827
    3    0.00170766    0.00170617
 Gradient time:  CPU 0.11 s  wall 0.10 s
 Geometry Optimization Parameters
   NAtoms,    NIC,     NZ,  NCons,   NDum,   NFix, NCnnct, MaxDiis
        7      35       0       0       0       0       0       0

 Cartesian Hessian Update
 Hessian Updated using BFGS Update


** GEOMETRY OPTIMIZATION IN DELOCALIZED INTERNAL COORDINATES **
   Searching for a Minimum

   Optimization Cycle:   5

                       Coordinates (Angstroms)
     ATOM                X               Y               Z
      1  H         1.1477580672    0.0015825917    1.4254065218
      2  Si        0.5923140908    0.0001506696    0.0478269382
      3  H         1.0776438241    1.2165919113   -0.6356449064
      4  H         1.0779083684   -1.2175405717   -0.6332280722
      5  N        -1.1515459135   -0.0001919014   -0.0605390103
      6  H        -1.6328847901    0.8180203826    0.2923063576
      7  H        -1.6326161802   -0.8180395015    0.2935144095
   Point Group: c1    Number of degrees of freedom:    15


   Energy is   -346.632757868

 Hessian Updated using BFGS Update

 15 Hessian modes will be used to form the next step
  Hessian Eigenvalues:
     0.022623    0.023898    0.084257    0.084797    0.151828    0.160000
     0.160000    0.160107    0.160659    0.304041    0.305491    0.333160
     0.435701    0.439861    0.444729

 Minimum Search - Taking Simple RFO Step
 Searching for Lamda that Minimizes Along All modes
 Value Taken    Lamda =  -0.00026477
 Step Taken.  Stepsize is  0.101620

                             Maximum     Tolerance    Cnvgd?
         Gradient           0.002455      0.000020      NO
         Displacement       0.073498      0.000120      NO
         Energy change     -0.000341      0.000000      NO


 New Cartesian Coordinates Obtained by Inverse Iteration

 Displacement from previous Coordinates is:  0.070005
 ----------------------------------------------------------------
             Standard Nuclear Orientation (Angstroms)
    I     Atom           X                Y                Z
 ----------------------------------------------------------------
    1      H       1.1659077669     0.0015730199     1.4255781547
    2      Si      0.5927331344     0.0001486793     0.0520889372
    3      H       1.0740345904     1.2195167847    -0.6346574349
    4      H       1.0743041591    -1.2204459964    -0.6322332235
    5      N      -1.1459722183    -0.0001805997    -0.0401200105
    6      H      -1.6413491907     0.8217682764     0.2788697697
    7      H      -1.6410807750    -0.8218065835     0.2801160455
 ----------------------------------------------------------------
 Molecular Point Group                 C1    NOp =  1
 Largest Abelian Subgroup              C1    NOp =  1
 Nuclear Repulsion Energy =    64.4818508095 hartrees
 There are       13 alpha and       13 beta electrons
 Applying Cartesian multipole field
    Component          Value
    ---------          -----
     (2,0,0)        1.00000E-11
     (0,2,0)        2.00000E-11
     (0,0,2)       -3.00000E-11
 Nucleus-field energy     =     0.0000000008 hartrees
 Requested basis set is 6-311+G(d,p)
 There are 39 shells and 82 basis functions
 A cutoff of  1.0D-11 yielded    777 shell pairs
 There are      3480 function pairs (      3657 Cartesian)
 Smallest overlap matrix eigenvalue = 2.24E-03
 Guess MOs from SCF MO coefficient file
 Reading MOs from coefficient file
 Reading MOs from coefficient file

 -----------------------------------------------------------------------
  General SCF calculation program by
  Eric Jon Sundstrom, Paul Horn, Yuezhi Mao, Dmitri Zuev, Alec White,
  David Stuck, Shaama M.S., Shane Yost, Joonho Lee, David Small,
  Daniel Levine, Susi Lehtola, Hugh Burton, Evgeny Epifanovsky
 -----------------------------------------------------------------------
 Hartree-Fock
 using 4 threads for integral computing
 -------------------------------------------------------
 OpenMP Integral computing Module                
 Release: version 1.0, May 2013, Q-Chem Inc. Pittsburgh 
 -------------------------------------------------------
 A restricted SCF calculation will be
 performed using DIIS
 SCF converges when DIIS error is below 1.0e-08
 ---------------------------------------
  Cycle       Energy         DIIS error
 ---------------------------------------
    1    -346.3400161996      7.97e-04  
    2    -346.3344894755      1.83e-04  
    3    -346.3345210495      9.60e-05  
    4    -346.3345285989      2.35e-05  
    5    -346.3345298456      6.89e-06  
    6    -346.3345299871      1.44e-06  
    7    -346.3345299941      3.67e-07  
    8    -346.3345299946      8.51e-08  
    9    -346.3345299946      1.56e-08  
   10    -346.3345299946      4.07e-09  Convergence criterion met
 ---------------------------------------
 SCF time:   CPU 3.14s  wall 1.00s 
 SCF   energy in the final basis set =     -346.3345299946
 Total energy in the final basis set =     -346.3345299946
 
 Components of the MP2 correlation energy:
        aaaa  correlation energy =        -0.0303395475 au
        abab  correlation energy =        -0.2377386223 au
        bbbb  correlation energy =        -0.0303395475 au
        non-Brillouin singles    =        -0.0000000000 au

 Total  MP2   correlation energy =                    -0.29841772 au
        MP2         total energy =                  -346.63294771 au
  Entering Z-vector solver.
   1         0           1      0.000196    0.000196
   2         0           1      0.000073    0.000073
   3         0           1      0.000018    0.000018
   4         0           1      0.000005    0.000005
   5         0           1      0.000001    0.000001
   6         1           0      0.000000    0.000000    Roots Converged
 
 --------------------------------------------------------------
 
                    Orbital Energies (a.u.)
 --------------------------------------------------------------
 
 Alpha MOs
 -- Occupied --
-68.784 -15.538  -6.128  -4.236  -4.235  -4.235  -1.136  -0.723
 -0.654  -0.554  -0.492  -0.477  -0.402
 -- Virtual --
  0.058   0.070   0.079   0.085   0.150   0.165   0.188   0.193
  0.200   0.220   0.267   0.276   0.280   0.307   0.370   0.375
  0.475   0.519   0.535   0.583   0.658   0.703   0.732   0.816
  0.870   0.940   1.043   1.046   1.096   1.101   1.183   1.295
  1.429   1.443   1.485   1.500   1.541   1.588   1.724   1.790
  1.882   1.888   1.897   1.906   2.075   2.193   2.227   2.297
  2.407   2.417   2.755   2.782   2.830   2.899   2.952   2.982
  3.018   3.087   3.263   3.436   4.354   4.755   5.192   6.226
 12.305  12.319  12.355  36.981 144.015
 --------------------------------------------------------------
 
          Ground-State Mulliken Net Atomic Charges

     Atom                 Charge (a.u.)
  ----------------------------------------
      1 H                    -0.194624
      2 Si                    0.859466
      3 H                    -0.176610
      4 H                    -0.176614
      5 N                    -0.822350
      6 H                     0.255365
      7 H                     0.255367
  ----------------------------------------
  Sum of atomic charges =     0.000000

 -----------------------------------------------------------------
                    Cartesian Multipole Moments
 -----------------------------------------------------------------
    Charge (ESU x 10^10)
                 0.0000
    Dipole Moment (Debye)
         X      -0.6974      Y       0.0006      Z       0.9659
       Tot       1.1913
    Quadrupole Moments (Debye-Ang)
        XX     -21.0889     XY      -0.0020     YY     -21.0023
        XZ      -2.3585     YZ      -0.0030     ZZ     -24.5419
    Octopole Moments (Debye-Ang^2)
       XXX      -9.0144    XXY       0.0014    XYY      -6.5527
       YYY      -0.0006    XXZ       1.9648    XYZ       0.0036
       YYZ       1.1478    XZZ      -1.8808    YZZ      -0.0068
       ZZZ      -4.3243
    Hexadecapole Moments (Debye-Ang^3)
      XXXX    -134.1921   XXXY      -0.0149   XXYY     -29.4918
      XYYY      -0.0078   YYYY     -52.4944   XXXZ      -8.7526
      XXYZ      -0.0071   XYYZ      -0.9457   YYYZ      -0.0006
      XXZZ     -37.6587   XYZZ      -0.0064   YYZZ     -17.7589
      XZZZ      -4.8228   YZZZ      -0.0028   ZZZZ     -55.7413
 -----------------------------------------------------------------
 DrvMan is completing analytic gradient of the MP2 energy
 MP2 relaxed dipole moment
            1
    1  -0.2743689
    2   0.0002440
    3   0.3800093
	Magnitude:	 0.469 au	 1.191 Debye
 MP2 energy read as -346.632948
 Full Analytical Gradient of MP2 Energy (in au.)
             1             2             3             4             5
    1    0.00088763   -0.00062425    0.00059069    0.00058830   -0.00147643
    2    0.00000133   -0.00000541    0.00168792   -0.00168273   -0.00000213
    3    0.00189229    0.00058334   -0.00089118   -0.00088265   -0.00251766
             6             7
    1    0.00001724    0.00001682
    2   -0.00019435    0.00019537
    3    0.00090851    0.00090735
 Gradient time:  CPU 0.10 s  wall 0.10 s
 Geometry Optimization Parameters
   NAtoms,    NIC,     NZ,  NCons,   NDum,   NFix, NCnnct, MaxDiis
        7      35       0       0       0       0       0       0

 Cartesian Hessian Update
 Hessian Updated using BFGS Update


** GEOMETRY OPTIMIZATION IN DELOCALIZED INTERNAL COORDINATES **
   Searching for a Minimum

   Optimization Cycle:   6

                       Coordinates (Angstroms)
     ATOM                X               Y               Z
      1  H         1.1659077669    0.0015730199    1.4255781547
      2  Si        0.5927331344    0.0001486793    0.0520889372
      3  H         1.0740345904    1.2195167847   -0.6346574349
      4  H         1.0743041591   -1.2204459964   -0.6322332235
      5  N        -1.1459722183   -0.0001805997   -0.0401200105
      6  H        -1.6413491907    0.8217682764    0.2788697697
      7  H        -1.6410807750   -0.8218065835    0.2801160455
   Point Group: c1    Number of degrees of freedom:    15


   Energy is   -346.632947712

 Hessian Updated using BFGS Update

 15 Hessian modes will be used to form the next step
  Hessian Eigenvalues:
     0.012841    0.023898    0.084258    0.084900    0.152252    0.159972
     0.160000    0.160000    0.160286    0.304235    0.305493    0.357147
     0.401182    0.438301    0.439861

 Minimum Search - Taking Simple RFO Step
 Searching for Lamda that Minimizes Along All modes
 Value Taken    Lamda =  -0.00016892
 Step Taken.  Stepsize is  0.100072

                             Maximum     Tolerance    Cnvgd?
         Gradient           0.002805      0.000020      NO
         Displacement       0.072284      0.000120      NO
         Energy change     -0.000190      0.000000      NO


 New Cartesian Coordinates Obtained by Inverse Iteration

 Displacement from previous Coordinates is:  0.063909
 ----------------------------------------------------------------
             Standard Nuclear Orientation (Angstroms)
    I     Atom           X                Y                Z
 ----------------------------------------------------------------
    1      H       1.1797312701     0.0015665305     1.4223335514
    2      Si      0.5936595727     0.0001475353     0.0561479574
    3      H       1.0703343218     1.2181485550    -0.6327542399
    4      H       1.0706133990    -1.2190678984    -0.6303529213
    5      N      -1.1399071056    -0.0001679894    -0.0195287071
    6      H      -1.6480618343     0.8247954711     0.2662513948
    7      H      -1.6477921568    -0.8248486233     0.2675452028
 ----------------------------------------------------------------
 Molecular Point Group                 C1    NOp =  1
 Largest Abelian Subgroup              C1    NOp =  1
 Nuclear Repulsion Energy =    64.5972658906 hartrees
 There are       13 alpha and       13 beta electrons
 Applying Cartesian multipole field
    Component          Value
    ---------          -----
     (2,0,0)        1.00000E-11
     (0,2,0)        2.00000E-11
     (0,0,2)       -3.00000E-11
 Nucleus-field energy     =     0.0000000008 hartrees
 Requested basis set is 6-311+G(d,p)
 There are 39 shells and 82 basis functions
 A cutoff of  1.0D-11 yielded    777 shell pairs
 There are      3480 function pairs (      3657 Cartesian)
 Smallest overlap matrix eigenvalue = 2.30E-03
 Guess MOs from SCF MO coefficient file
 Reading MOs from coefficient file
 Reading MOs from coefficient file

 -----------------------------------------------------------------------
  General SCF calculation program by
  Eric Jon Sundstrom, Paul Horn, Yuezhi Mao, Dmitri Zuev, Alec White,
  David Stuck, Shaama M.S., Shane Yost, Joonho Lee, David Small,
  Daniel Levine, Susi Lehtola, Hugh Burton, Evgeny Epifanovsky
 -----------------------------------------------------------------------
 Hartree-Fock
 using 4 threads for integral computing
 -------------------------------------------------------
 OpenMP Integral computing Module                
 Release: version 1.0, May 2013, Q-Chem Inc. Pittsburgh 
 -------------------------------------------------------
 A restricted SCF calculation will be
 performed using DIIS
 SCF converges when DIIS error is below 1.0e-08
 ---------------------------------------
  Cycle       Energy         DIIS error
 ---------------------------------------
    1    -346.3425891711      7.56e-04  
    2    -346.3348008526      1.69e-04  
    3    -346.3348288091      8.25e-05  
    4    -346.3348346860      2.33e-05  
    5    -346.3348357935      6.63e-06  
    6    -346.3348359231      1.48e-06  
    7    -346.3348359303      3.86e-07  
    8    -346.3348359308      1.05e-07  
    9    -346.3348359309      1.96e-08  
   10    -346.3348359309      4.23e-09  Convergence criterion met
 ---------------------------------------
 SCF time:   CPU 3.03s  wall 1.00s 
 SCF   energy in the final basis set =     -346.3348359309
 Total energy in the final basis set =     -346.3348359309
 
 Components of the MP2 correlation energy:
        aaaa  correlation energy =        -0.0303239611 au
        abab  correlation energy =        -0.2375764437 au
        bbbb  correlation energy =        -0.0303239611 au
        non-Brillouin singles    =        -0.0000000000 au

 Total  MP2   correlation energy =                    -0.29822437 au
        MP2         total energy =                  -346.63306030 au
  Entering Z-vector solver.
   1         0           1      0.000194    0.000194
   2         0           1      0.000072    0.000072
   3         0           1      0.000017    0.000017
   4         0           1      0.000005    0.000005
   5         0           1      0.000001    0.000001
   6         1           0      0.000000    0.000000    Roots Converged
 
 --------------------------------------------------------------
 
                    Orbital Energies (a.u.)
 --------------------------------------------------------------
 
 Alpha MOs
 -- Occupied --
-68.782 -15.538  -6.127  -4.235  -4.235  -4.234  -1.135  -0.724
 -0.655  -0.555  -0.493  -0.477  -0.400
 -- Virtual --
  0.059   0.070   0.079   0.085   0.150   0.165   0.188   0.193
  0.201   0.221   0.268   0.276   0.282   0.305   0.371   0.376
  0.476   0.519   0.536   0.584   0.661   0.706   0.731   0.812
  0.875   0.935   1.043   1.054   1.099   1.102   1.187   1.291
  1.433   1.443   1.479   1.503   1.542   1.596   1.723   1.801
  1.883   1.891   1.899   1.904   2.076   2.198   2.235   2.298
  2.409   2.419   2.755   2.779   2.810   2.904   2.953   2.988
  3.019   3.098   3.273   3.434   4.348   4.757   5.201   6.227
 12.306  12.321  12.361  36.985 144.017
 --------------------------------------------------------------
 
          Ground-State Mulliken Net Atomic Charges

     Atom                 Charge (a.u.)
  ----------------------------------------
      1 H                    -0.195180
      2 Si                    0.864866
      3 H                    -0.177895
      4 H                    -0.177897
      5 N                    -0.829332
      6 H                     0.257718
      7 H                     0.257719
  ----------------------------------------
  Sum of atomic charges =     0.000000

 -----------------------------------------------------------------
                    Cartesian Multipole Moments
 -----------------------------------------------------------------
    Charge (ESU x 10^10)
                 0.0000
    Dipole Moment (Debye)
         X      -0.7687      Y       0.0005      Z       0.8662
       Tot       1.1581
    Quadrupole Moments (Debye-Ang)
        XX     -20.9311     XY      -0.0019     YY     -20.9698
        XZ      -2.1886     YZ      -0.0031     ZZ     -24.5670
    Octopole Moments (Debye-Ang^2)
       XXX      -9.6334    XXY       0.0011    XYY      -6.6920
       YYY      -0.0009    XXZ       1.4794    XYZ       0.0038
       YYZ       0.9806    XZZ      -1.9278    YZZ      -0.0069
       ZZZ      -4.8851
    Hexadecapole Moments (Debye-Ang^3)
      XXXX    -133.0476   XXXY      -0.0145   XXYY     -29.2720
      XYYY      -0.0074   YYYY     -52.4357   XXXZ      -8.1580
      XXYZ      -0.0075   XYYZ      -0.8039   YYYZ      -0.0007
      XXZZ     -37.6686   XYZZ      -0.0063   YYZZ     -17.7496
      XZZZ      -4.4424   YZZZ      -0.0027   ZZZZ     -55.5855
 -----------------------------------------------------------------
 DrvMan is completing analytic gradient of the MP2 energy
 MP2 relaxed dipole moment
            1
    1  -0.3024305
    2   0.0002101
    3   0.3408004
	Magnitude:	 0.456 au	 1.158 Debye
 MP2 energy read as -346.633060
 Full Analytical Gradient of MP2 Energy (in au.)
             1             2             3             4             5
    1    0.00068370   -0.00165591    0.00041303    0.00041024    0.00014190
    2    0.00000119   -0.00000756    0.00110209   -0.00109551   -0.00000021
    3    0.00128880    0.00001872   -0.00052981   -0.00052272   -0.00092395
             6             7
    1    0.00000360    0.00000344
    2   -0.00017606    0.00017606
    3    0.00033490    0.00033406
 Gradient time:  CPU 0.10 s  wall 0.09 s
 Geometry Optimization Parameters
   NAtoms,    NIC,     NZ,  NCons,   NDum,   NFix, NCnnct, MaxDiis
        7      35       0       0       0       0       0       0

 Cartesian Hessian Update
 Hessian Updated using BFGS Update


** GEOMETRY OPTIMIZATION IN DELOCALIZED INTERNAL COORDINATES **
   Searching for a Minimum

   Optimization Cycle:   7

                       Coordinates (Angstroms)
     ATOM                X               Y               Z
      1  H         1.1797312701    0.0015665305    1.4223335514
      2  Si        0.5936595727    0.0001475353    0.0561479574
      3  H         1.0703343218    1.2181485550   -0.6327542399
      4  H         1.0706133990   -1.2190678984   -0.6303529213
      5  N        -1.1399071056   -0.0001679894   -0.0195287071
      6  H        -1.6480618343    0.8247954711    0.2662513948
      7  H        -1.6477921568   -0.8248486233    0.2675452028
   Point Group: c1    Number of degrees of freedom:    15


   Energy is   -346.633060297

 Hessian Updated using BFGS Update

 14 Hessian modes will be used to form the next step
  Hessian Eigenvalues:
     0.009758    0.023898    0.084258    0.084915    0.152884    0.158764
     0.160000    0.160392    0.300039    0.305465    0.306756    0.406041
     0.438359    0.439861

 Minimum Search - Taking Simple RFO Step
 Searching for Lamda that Minimizes Along All modes
 Value Taken    Lamda =  -0.00004673
 Step Taken.  Stepsize is  0.053849

                             Maximum     Tolerance    Cnvgd?
         Gradient           0.001545      0.000020      NO
         Displacement       0.038460      0.000120      NO
         Energy change     -0.000113      0.000000      NO


 New Cartesian Coordinates Obtained by Inverse Iteration

 Displacement from previous Coordinates is:  0.033094
 ----------------------------------------------------------------
             Standard Nuclear Orientation (Angstroms)
    I     Atom           X                Y                Z
 ----------------------------------------------------------------
    1      H       1.1854018944     0.0015629213     1.4195427761
    2      Si      0.5950655272     0.0001489648     0.0583629296
    3      H       1.0685614330     1.2157480586    -0.6316619728
    4      H       1.0688526330    -1.2166678473    -0.6292869284
    5      N      -1.1370444093    -0.0001608670    -0.0083705845
    6      H      -1.6512646414     0.8264345346     0.2598641879
    7      H      -1.6509949701    -0.8264921843     0.2611918302
 ----------------------------------------------------------------
 Molecular Point Group                 C1    NOp =  1
 Largest Abelian Subgroup              C1    NOp =  1
 Nuclear Repulsion Energy =    64.6527966888 hartrees
 There are       13 alpha and       13 beta electrons
 Applying Cartesian multipole field
    Component          Value
    ---------          -----
     (2,0,0)        1.00000E-11
     (0,2,0)        2.00000E-11
     (0,0,2)       -3.00000E-11
 Nucleus-field energy     =     0.0000000008 hartrees
 Requested basis set is 6-311+G(d,p)
 There are 39 shells and 82 basis functions
 A cutoff of  1.0D-11 yielded    777 shell pairs
 There are      3480 function pairs (      3657 Cartesian)
 Smallest overlap matrix eigenvalue = 2.32E-03
 Guess MOs from SCF MO coefficient file
 Reading MOs from coefficient file
 Reading MOs from coefficient file

 -----------------------------------------------------------------------
  General SCF calculation program by
  Eric Jon Sundstrom, Paul Horn, Yuezhi Mao, Dmitri Zuev, Alec White,
  David Stuck, Shaama M.S., Shane Yost, Joonho Lee, David Small,
  Daniel Levine, Susi Lehtola, Hugh Burton, Evgeny Epifanovsky
 -----------------------------------------------------------------------
 Hartree-Fock
 using 4 threads for integral computing
 -------------------------------------------------------
 OpenMP Integral computing Module                
 Release: version 1.0, May 2013, Q-Chem Inc. Pittsburgh 
 -------------------------------------------------------
 A restricted SCF calculation will be
 performed using DIIS
 SCF converges when DIIS error is below 1.0e-08
 ---------------------------------------
  Cycle       Energy         DIIS error
 ---------------------------------------
    1    -346.3396566800      3.97e-04  
    2    -346.3349300129      8.46e-05  
    3    -346.3349373462      3.63e-05  
    4    -346.3349386102      1.26e-05  
    5    -346.3349388883      3.51e-06  
    6    -346.3349389234      8.10e-07  
    7    -346.3349389256      2.18e-07  
    8    -346.3349389257      5.86e-08  
    9    -346.3349389257      1.06e-08  
   10    -346.3349389257      2.25e-09  Convergence criterion met
 ---------------------------------------
 SCF time:   CPU 3.07s  wall 1.00s 
 SCF   energy in the final basis set =     -346.3349389257
 Total energy in the final basis set =     -346.3349389257
 
 Components of the MP2 correlation energy:
        aaaa  correlation energy =        -0.0303178871 au
        abab  correlation energy =        -0.2375135139 au
        bbbb  correlation energy =        -0.0303178871 au
        non-Brillouin singles    =        -0.0000000000 au

 Total  MP2   correlation energy =                    -0.29814929 au
        MP2         total energy =                  -346.63308821 au
  Entering Z-vector solver.
   1         0           1      0.000194    0.000194
   2         0           1      0.000072    0.000072
   3         0           1      0.000017    0.000017
   4         0           1      0.000005    0.000005
   5         0           1      0.000001    0.000001
   6         1           0      0.000000    0.000000    Roots Converged
 
 --------------------------------------------------------------
 
                    Orbital Energies (a.u.)
 --------------------------------------------------------------
 
 Alpha MOs
 -- Occupied --
-68.782 -15.537  -6.127  -4.234  -4.234  -4.233  -1.135  -0.724
 -0.656  -0.555  -0.493  -0.478  -0.399
 -- Virtual --
  0.059   0.070   0.079   0.085   0.151   0.165   0.188   0.192
  0.201   0.222   0.268   0.276   0.284   0.304   0.371   0.376
  0.476   0.518   0.537   0.585   0.662   0.707   0.731   0.809
  0.877   0.933   1.043   1.059   1.101   1.103   1.189   1.289
  1.435   1.443   1.476   1.504   1.542   1.600   1.722   1.808
  1.885   1.893   1.901   1.904   2.075   2.200   2.239   2.302
  2.413   2.422   2.756   2.775   2.801   2.907   2.954   2.991
  3.021   3.104   3.278   3.432   4.346   4.758   5.205   6.228
 12.309  12.324  12.363  36.986 144.019
 --------------------------------------------------------------
 
          Ground-State Mulliken Net Atomic Charges

     Atom                 Charge (a.u.)
  ----------------------------------------
      1 H                    -0.195389
      2 Si                    0.868745
      3 H                    -0.178656
      4 H                    -0.178657
      5 N                    -0.833868
      6 H                     0.258911
      7 H                     0.258912
  ----------------------------------------
  Sum of atomic charges =     0.000000

 -----------------------------------------------------------------
                    Cartesian Multipole Moments
 -----------------------------------------------------------------
    Charge (ESU x 10^10)
                 0.0000
    Dipole Moment (Debye)
         X      -0.7919      Y       0.0005      Z       0.8147
       Tot       1.1362
    Quadrupole Moments (Debye-Ang)
        XX     -20.8493     XY      -0.0018     YY     -20.9447
        XZ      -2.0920     YZ      -0.0032     ZZ     -24.5715
    Octopole Moments (Debye-Ang^2)
       XXX      -9.9074    XXY       0.0010    XYY      -6.7546
       YYY      -0.0010    XXZ       1.2275    XYZ       0.0039
       YYZ       0.8897    XZZ      -1.9360    YZZ      -0.0070
       ZZZ      -5.1778
    Hexadecapole Moments (Debye-Ang^3)
      XXXX    -132.5267   XXXY      -0.0142   XXYY     -29.1540
      XYYY      -0.0071   YYYY     -52.3089   XXXZ      -7.8080
      XXYZ      -0.0078   XYYZ      -0.7193   YYYZ      -0.0008
      XXZZ     -37.6714   XYZZ      -0.0061   YYZZ     -17.7187
      XZZZ      -4.2093   YZZZ      -0.0027   ZZZZ     -55.4429
 -----------------------------------------------------------------
 DrvMan is completing analytic gradient of the MP2 energy
 MP2 relaxed dipole moment
            1
    1  -0.3115763
    2   0.0002025
    3   0.3205339
	Magnitude:	 0.447 au	 1.136 Debye
 MP2 energy read as -346.633088
 Full Analytical Gradient of MP2 Energy (in au.)
             1             2             3             4             5
    1    0.00022481   -0.00093037    0.00011630    0.00011491    0.00056124
    2    0.00000059   -0.00000388    0.00026184   -0.00025870    0.00000040
    3    0.00035350   -0.00011654   -0.00009901   -0.00009648   -0.00023409
             6             7
    1   -0.00004349   -0.00004340
    2   -0.00005695    0.00005671
    3    0.00009659    0.00009603
 Gradient time:  CPU 0.11 s  wall 0.11 s
 Geometry Optimization Parameters
   NAtoms,    NIC,     NZ,  NCons,   NDum,   NFix, NCnnct, MaxDiis
        7      35       0       0       0       0       0       0

 Cartesian Hessian Update
 Hessian Updated using BFGS Update


** GEOMETRY OPTIMIZATION IN DELOCALIZED INTERNAL COORDINATES **
   Searching for a Minimum

   Optimization Cycle:   8

                       Coordinates (Angstroms)
     ATOM                X               Y               Z
      1  H         1.1854018944    0.0015629213    1.4195427761
      2  Si        0.5950655272    0.0001489648    0.0583629296
      3  H         1.0685614330    1.2157480586   -0.6316619728
      4  H         1.0688526330   -1.2166678473   -0.6292869284
      5  N        -1.1370444093   -0.0001608670   -0.0083705845
      6  H        -1.6512646414    0.8264345346    0.2598641879
      7  H        -1.6509949701   -0.8264921843    0.2611918302
   Point Group: c1    Number of degrees of freedom:    15


   Energy is   -346.633088214

 Hessian Updated using BFGS Update

 15 Hessian modes will be used to form the next step
  Hessian Eigenvalues:
     0.008768    0.023898    0.084257    0.084691    0.151767    0.157411
     0.160000    0.160000    0.160374    0.265008    0.305297    0.305559
     0.412521    0.438539    0.439861

 Minimum Search - Taking Simple RFO Step
 Searching for Lamda that Minimizes Along All modes
 Value Taken    Lamda =  -0.00000385
 Step Taken.  Stepsize is  0.013571

                             Maximum     Tolerance    Cnvgd?
         Gradient           0.000453      0.000020      NO
         Displacement       0.009535      0.000120      NO
         Energy change     -0.000028      0.000000      NO


 New Cartesian Coordinates Obtained by Inverse Iteration

 Displacement from previous Coordinates is:  0.008078
 ----------------------------------------------------------------
             Standard Nuclear Orientation (Angstroms)
    I     Atom           X                Y                Z
 ----------------------------------------------------------------
    1      H       1.1864495438     0.0015601065     1.4188960034
    2      Si      0.5958619981     0.0001502968     0.0590036844
[...]
     4   -4.263545139371035e-02   4.038691144562010e-02   2.362599627069956e-02
     5   -2.415433876732330e-01   6.373615561380285e-07   1.155417388275412e-02
     6   -8.181797801366828e-03  -2.416078426345608e-03  -6.485630018302943e-03
     7   -8.181797107406248e-03   2.416752048510279e-03  -6.484908428903866e-03

Order 1, Length 21
    Atom      X          Y          Z
     1   -5.870007408022136e-06  -3.430244389218902e-02  -1.616671194256193e-05
     2    5.898380899255733e-06   3.689222214617413e-01  -6.469165863346709e-07
     3   -3.624582992666284e-02  -1.387936363427933e-01   6.129869210563725e-02
     4    3.624537381611831e-02  -1.388315212467043e-01  -6.127954719159723e-02
     5    7.553984535749901e-07  -6.227677420251136e-02  -2.432178669861260e-06
     6    1.979746805977831e-02   2.641868228193435e-03   5.332838876436336e-04
     7   -1.979809876979502e-02   2.640948537987112e-03  -5.323423010787105e-04

Order 1, Length 21
    Atom      X          Y          Z
     1   -5.129708686279504e-02  -1.413601996570693e-05  -1.576685698921874e-01
     2    6.021719222246789e-03  -6.469165863346709e-07   3.234799783334562e-01
     3    2.204665562715601e-02   6.092038826183547e-02  -6.617906993715247e-02
     4    2.203044295637491e-02  -6.090564558367093e-02  -6.614544103501460e-02
     5   -1.275112276491318e-02   3.326696633661306e-07  -3.168699558855771e-02
     6    6.971250179362985e-03  -7.820639128404774e-04  -8.998605107665074e-04
     7    6.972879545663712e-03   7.822387945049633e-04  -9.008562725518056e-04


     3 Order 1, Length 21
    Atom      X          Y          Z
     1    5.106010283126130e-03   2.800456827937641e-03  -2.584671560885403e-03
     2   -4.263827905338660e-02  -3.624582992666284e-02   2.204665562715601e-02
     3    4.348675076151597e-02   4.671342103338065e-02  -2.411651436650430e-02
     4    3.829276092910814e-03   2.964080609536699e-03  -1.810411653225677e-03
     5   -7.570257030236213e-03  -1.777939783136656e-02   5.194715999937457e-03
     6    1.463895950989335e-03   3.864635992748730e-04  -4.999422351341821e-04
     7   -3.675774966829496e-03   1.160671784311248e-03   1.771236016106115e-03

Order 1, Length 21
    Atom      X          Y          Z
     1   -5.797362717481145e-04   1.868411263335074e-03   1.606784165408486e-03
     2   -4.038563234055860e-02  -1.387936363427933e-01   6.092038826183547e-02
     3    4.671342103338065e-02   1.420647066507970e-01  -6.868474063345606e-02
     4   -2.964409210475525e-03  -8.080274187912132e-03   5.273715527681664e-03
     5   -2.072890187155189e-03   2.429703422293535e-03   5.872339567101152e-05
     6   -1.157925823688104e-03  -4.261145826768440e-04   3.901831207316948e-04
     7    4.471475940009729e-04   9.373216144918492e-04   4.356331189458611e-04

Order 1, Length 21
    Atom      X          Y          Z
     1    2.806437998451597e-03   1.256900974844553e-02  -6.029032978059687e-03
     2    2.364150573392937e-02   6.129869210563725e-02  -6.617906993715247e-02
     3   -2.411651436650430e-02  -6.868474063345606e-02   6.265515028643387e-02
     4   -1.809697025992576e-03  -5.269644195853162e-03   5.594757688956401e-03
     5   -7.955395836057874e-05   2.441661237310250e-04   3.539400174023869e-03
     6   -5.157157616739363e-04   6.893752246320033e-05  -5.747937191187490e-04
     7    7.391243126895954e-05  -2.257945341583348e-04   9.927306258239656e-04


     4 Order 1, Length 21
    Atom      X          Y          Z
     1    5.104250627665377e-03  -2.801881714624817e-03  -2.583515811840682e-03
     2   -4.263545139371035e-02   3.624537381611831e-02   2.203044295637491e-02
     3    3.829276092910814e-03  -2.964409210475525e-03  -1.809697025992576e-03
     4    4.348310583744328e-02  -4.671368794626475e-02  -2.410013015991281e-02
     5   -7.568479212478186e-03   1.778342973932354e-02   5.197357909449656e-03
     6   -3.675567387898061e-03  -1.161566309015726e-03   1.768357488009003e-03
     7    1.464279896841259e-03  -3.871135400935212e-04  -5.016315279742189e-04

Order 1, Length 21
    Atom      X          Y          Z
     1    5.784240934900784e-04   1.864491548795633e-03  -1.608692955682657e-03
     2    4.038691144562010e-02  -1.388315212467043e-01  -6.090564558367093e-02
     3    2.964080609536699e-03  -8.080274187912132e-03  -5.269644195853162e-03
     4   -4.671368794626475e-02   1.421076510058146e-01   6.866431388267938e-02
     5    2.072942464206747e-03   2.428125599115811e-03  -5.465318074773975e-05
     6   -4.458304340847592e-04   9.372916567447389e-04  -4.368010719030761e-04
     7    1.156961510002524e-03  -4.255334461520072e-04  -3.902766529230685e-04

Order 1, Length 21
    Atom      X          Y          Z
     1    2.805857149304695e-03  -1.257138628066672e-02  -6.023691193939251e-03
     2    2.362599627069956e-02  -6.127954719159723e-02  -6.614544103501460e-02
     3   -1.810411653225677e-03   5.273715527681664e-03   5.594757688956401e-03
     4   -2.410013015991281e-02   6.866431388267938e-02   6.261732425523639e-02
     5   -7.862720775888031e-05  -2.454217697840900e-04   3.540125895373043e-03
     6    7.402277220547550e-05   2.257794823460683e-04   9.925493243044268e-04
     7   -5.159872869107487e-04  -6.822742104336101e-05  -5.756309701027456e-04


     5 Order 1, Length 21
    Atom      X          Y          Z
     1   -1.019453029465675e-02  -9.198127822998958e-07  -2.040733784281509e-03
     2   -2.415433876732330e-01   7.553984535749901e-07  -1.275112276491318e-02
     3   -7.570257030236213e-03  -2.072890187155189e-03  -7.955395836057874e-05
     4   -7.568479212478186e-03   2.072942464206747e-03  -7.862720775888031e-05
     5    5.908462717502476e-01  -2.887146958377046e-07  -1.384794495080738e-01
     6   -1.619860147413111e-01   1.623605964496238e-01   7.671723842617979e-02
     7   -1.619808116104792e-01  -1.623597156488534e-01   7.671322723747422e-02

Order 1, Length 21
    Atom      X          Y          Z
     1   -2.886821860294928e-06   6.740722313402893e-03  -6.233927489833737e-07
     2    6.373615561380285e-07  -6.227677420251136e-02   3.326696633661306e-07
     3   -1.777939783136656e-02   2.429703422293535e-03   2.441661237310250e-04
     4    1.778342973932354e-02   2.428125599115811e-03  -2.454217697840900e-04
     5   -2.887146958377046e-07   7.030172668914957e-01   3.429811000495801e-06
     6    1.800484804331759e-01  -3.261652171049436e-01  -1.029096823230509e-01
     7   -1.800487021884088e-01  -3.261764365541139e-01   1.029085869063597e-01

Order 1, Length 21
    Atom      X          Y          Z
     1   -1.288146145202665e-02  -2.359158064542825e-06   5.121185353178669e-03
     2    1.155417388275412e-02  -2.432178669861260e-06  -3.168699558855771e-02
     3    5.194715999937457e-03   5.872339567101152e-05   3.539400174023869e-03
     4    5.197357909449656e-03  -5.465318074773975e-05   3.540125895373043e-03
     5   -1.384794495080738e-01   3.429811000495801e-06   9.225616676111988e-02
     6    6.471432768270075e-02  -8.107412059766081e-02  -3.638606256561622e-02
     7    6.470758121344414e-02   8.107044161176802e-02  -3.638017975914720e-02


     6 Order 1, Length 21
    Atom      X          Y          Z
     1    3.529529323597872e-04  -8.695149453653455e-04  -3.752954771425631e-04
     2   -8.181797801366828e-03   1.979746805977831e-02   6.971250179362985e-03
     3    1.463895950989335e-03  -1.157925823688104e-03  -5.157157616739363e-04
     4   -3.675567387898061e-03  -4.458304340847592e-04   7.402277220547550e-05
     5   -1.619860147413111e-01   1.800484804331759e-01   6.471432768270075e-02
     6    1.611029285301969e-01  -1.777987744103398e-01  -6.585677868945822e-02
     7    1.092385983140886e-02  -1.957491744432761e-02  -5.012150597085022e-03

Order 1, Length 21
    Atom      X          Y          Z
     1   -9.479315663933462e-04  -2.162693026015867e-04  -1.820212316254243e-05
     2   -2.416078426345608e-03   2.641868228193435e-03  -7.820639128404774e-04
     3    3.864635992748730e-04  -4.261145826768440e-04   6.893752246320033e-05
     4   -1.161566309015726e-03   9.372916567447389e-04   2.257794823460683e-04
     5    1.623605964496238e-01  -3.261652171049436e-01  -8.107412059766081e-02
     6   -1.777987744103398e-01   3.448021584342548e-01   9.220094966948580e-02
     7    1.957601301003471e-02  -2.157102078820420e-02  -1.062208370933118e-02

Order 1, Length 21
    Atom      X          Y          Z
     1   -6.347410152342932e-04  -3.943124877509711e-04  -4.212621323275256e-04
     2   -6.485630018302943e-03   5.332838876436336e-04  -8.998605107665074e-04
     3   -4.999422351341821e-04   3.901831207316948e-04  -5.747937191187490e-04
     4    1.768357488009003e-03  -4.368010719030761e-04   9.925493243044268e-04
     5    7.671723842617979e-02  -1.029096823230509e-01  -3.638606256561622e-02
     6   -6.585677868945822e-02   9.220094966948580e-02   3.590002807303339e-02
     7   -5.010777282174822e-03   1.062019225306075e-02   1.388442762703317e-03


     7 Order 1, Length 21
    Atom      X          Y          Z
     1    3.525508755291258e-04   8.692077992862627e-04  -3.755288720890582e-04
     2   -8.181797107406248e-03  -1.979809876979502e-02   6.972879545663712e-03
     3   -3.675774966829496e-03   4.471475940009729e-04   7.391243126895954e-05
     4    1.464279896841259e-03   1.156961510002524e-03  -5.159872869107487e-04
     5   -1.619808116104792e-01  -1.800487021884088e-01   6.470758121344414e-02
     6    1.092385983140886e-02   1.957601301003471e-02  -5.010777282174822e-03
     7    1.610973756201440e-01   1.777965861752651e-01  -6.585188130909767e-02

Order 1, Length 21
    Atom      X          Y          Z
     1    9.480360222069208e-04  -2.169294295000288e-04   1.835985725322428e-05
     2    2.416752048510279e-03   2.640948537987112e-03   7.822387945049633e-04
     3    1.160671784311248e-03   9.373216144918492e-04  -2.257945341583348e-04
     4   -3.871135400935212e-04  -4.255334461520072e-04  -6.822742104336101e-05
     5   -1.623597156488534e-01  -3.261764365541139e-01   8.107044161176802e-02
     6   -1.957491744432761e-02  -2.157102078820420e-02   1.062019225306075e-02
     7    1.777965861752651e-01   3.448115029606723e-01  -9.219757486002171e-02

Order 1, Length 21
    Atom      X          Y          Z
     1   -6.360018679340470e-04   3.951188899435258e-04  -4.224733054516057e-04
     2   -6.484908428903866e-03  -5.323423010787105e-04  -9.008562725518056e-04
     3    1.771236016106115e-03   4.356331189458611e-04   9.927306258239656e-04
     4   -5.016315279742189e-04  -3.902766529230685e-04  -5.756309701027456e-04
     5    7.671322723747422e-02   1.029085869063597e-01  -3.638017975914720e-02
     6   -5.012150597085022e-03  -1.062208370933118e-02   1.388442762703317e-03
     7   -6.585188130909767e-02  -9.219757486002171e-02   3.589633000293091e-02




 # Finishing finite difference calculation for IDERIV #
 ######################################################
 ######################################################
 Requested basis set is 6-311+G(d,p)
 There are 39 shells and 82 basis functions
 **********************************************************************
 **                                                                  **
 **                       VIBRATIONAL ANALYSIS                       **
 **                       --------------------                       **
 **                                                                  **
 **        VIBRATIONAL FREQUENCIES (CM**-1) AND NORMAL MODES         **
 **     FORCE CONSTANTS (mDYN/ANGSTROM) AND REDUCED MASSES (AMU)     **
 **                  INFRARED INTENSITIES (KM/MOL)                   **
 **                                                                  **
 **********************************************************************
 

 Mode:                 1                      2                      3
 Frequency:       179.49                 422.04                 638.16
 Force Cnst:      0.0193                 0.1267                 0.2492
 Red. Mass:       1.0173                 1.2077                 1.0387
 IR Active:          YES                    YES                    YES
 IR Intens:       13.414                216.483                 29.318
 Raman Active:       YES                    YES                    YES
               X      Y      Z        X      Y      Z        X      Y      Z
 H          0.000 -0.231  0.000   -0.120  0.000  0.065   -0.000 -0.291  0.000
 Si         0.000 -0.006  0.000    0.007 -0.000  0.006   -0.000  0.034 -0.000
 H         -0.151  0.171  0.209    0.048 -0.005  0.035    0.470 -0.140  0.028
 H          0.151  0.171 -0.209    0.049  0.005  0.035   -0.469 -0.140 -0.028
 N         -0.000 -0.026 -0.000   -0.046  0.000 -0.115   -0.000 -0.001 -0.000
 H          0.069  0.200 -0.577    0.231 -0.051  0.651   -0.377 -0.177 -0.206
 H         -0.068  0.200  0.577    0.231  0.051  0.650    0.377 -0.177  0.206
 TransDip   0.000  0.117  0.000    0.234 -0.000  0.409    0.000  0.173  0.000

 Mode:                 4                      5                      6
 Frequency:       723.91                 845.37                 941.17
 Force Cnst:      0.3676                 1.9677                 0.6646
 Red. Mass:       1.1906                 4.6733                 1.2733
 IR Active:          YES                    YES                    YES
 IR Intens:       63.762                 56.103                 72.781
 Raman Active:       YES                    YES                    YES
               X      Y      Z        X      Y      Z        X      Y      Z
 H          0.744 -0.000 -0.263   -0.143  0.000 -0.022   -0.000  0.086  0.000
 Si         0.009  0.000  0.060   -0.221 -0.000 -0.003   -0.000 -0.055 -0.000
 H         -0.397  0.039 -0.155   -0.316  0.088  0.072   -0.407  0.086 -0.037
 H         -0.397 -0.039 -0.155   -0.317 -0.088  0.072    0.407  0.086  0.037
 N         -0.014  0.000 -0.079    0.425 -0.000 -0.011    0.000  0.119  0.000
 H         -0.002 -0.013  0.008    0.508  0.015  0.057   -0.520 -0.197 -0.059
 H         -0.002  0.013  0.007    0.508 -0.015  0.057    0.520 -0.197  0.059
 TransDip  -0.004  0.000  0.256   -0.240 -0.000  0.003   -0.000 -0.273 -0.000

 Mode:                 7                      8                      9
 Frequency:       975.56                1035.19                1038.61
 Force Cnst:      0.6058                 0.6872                 0.6650
 Red. Mass:       1.0804                 1.0885                 1.0463
 IR Active:          YES                    YES                    YES
 IR Intens:      131.280                286.138                 90.671
 Raman Active:       YES                    YES                    YES
               X      Y      Z        X      Y      Z        X      Y      Z
 H         -0.025 -0.000  0.001    0.567 -0.002 -0.260    0.001  0.756 -0.001
 Si         0.030 -0.000 -0.040   -0.053  0.000 -0.011   -0.000 -0.038 -0.000
 H         -0.259  0.414  0.509    0.463 -0.019  0.297    0.223  0.114  0.384
 H         -0.259 -0.414  0.509    0.464  0.019  0.298   -0.222  0.114 -0.383
 N         -0.019  0.000  0.006   -0.003 -0.000 -0.003   -0.000  0.006 -0.000
 H         -0.020  0.002 -0.001    0.018  0.009  0.013   -0.047 -0.011 -0.043
 H         -0.020 -0.002 -0.001    0.018 -0.009  0.013    0.047 -0.011  0.043
 TransDip   0.205 -0.000 -0.305   -0.534  0.001 -0.092   -0.001 -0.305 -0.000

 Mode:                10                     11                     12
 Frequency:      1599.69                2273.38                2323.10
 Force Cnst:      1.6723                 3.1799                 3.2570
 Red. Mass:       1.1092                 1.0443                 1.0243
 IR Active:          YES                    YES                    YES
 IR Intens:       50.417                196.537                 80.828
 Raman Active:       YES                    YES                    YES
               X      Y      Z        X      Y      Z        X      Y      Z
 H          0.003  0.000  0.006    0.388  0.000  0.909   -0.057 -0.000 -0.151
 Si         0.005 -0.000  0.004   -0.011 -0.000 -0.035    0.017 -0.000 -0.018
 H         -0.009  0.006 -0.015   -0.038 -0.093  0.035   -0.219 -0.577  0.324
 H         -0.009 -0.006 -0.015   -0.038  0.093  0.035   -0.219  0.578  0.324
 N         -0.086 -0.000  0.019   -0.001 -0.000  0.000    0.000 -0.000  0.001
 H          0.534  0.425 -0.174   -0.002  0.001 -0.003    0.008  0.004 -0.005
 H          0.534 -0.425 -0.174   -0.002 -0.001 -0.003    0.008 -0.004 -0.005
 TransDip   0.218  0.000 -0.065   -0.176 -0.000 -0.413    0.227 -0.000 -0.177

 Mode:                13                     14                     15
 Frequency:      2326.23                3624.87                3723.21
 Force Cnst:      3.3547                 8.1338                 8.9424
 Red. Mass:       1.0522                 1.0507                 1.0949
 IR Active:          YES                    YES                    YES
 IR Intens:      164.126                 21.309                 30.906
 Raman Active:       YES                    YES                    YES
               X      Y      Z        X      Y      Z        X      Y      Z
 H          0.000 -0.020  0.000   -0.004  0.000 -0.001    0.000 -0.001  0.000
 Si        -0.000 -0.041  0.000   -0.001  0.000 -0.000    0.000 -0.000 -0.000
 H          0.226  0.578 -0.338   -0.000 -0.002  0.001    0.000  0.002 -0.001
 H         -0.226  0.578  0.338   -0.000  0.002  0.001   -0.000  0.002  0.001
 N          0.000 -0.000  0.000    0.052 -0.000 -0.023    0.000 -0.082 -0.000
 H          0.002 -0.002 -0.002   -0.350  0.590  0.168   -0.367  0.573  0.182
 H         -0.002 -0.002  0.002   -0.350 -0.590  0.168    0.367  0.573 -0.182
 TransDip  -0.000 -0.410  0.000   -0.145 -0.000  0.027    0.000  0.178  0.000

 STANDARD THERMODYNAMIC QUANTITIES AT   298.15 K  AND     1.00 ATM

   This Molecule has  0 Imaginary Frequencies
   Zero point vibrational energy:       32.408 kcal/mol

   Atom    1 Element H  Has Mass    1.00783
   Atom    2 Element Si Has Mass   27.97693
   Atom    3 Element H  Has Mass    1.00783
   Atom    4 Element H  Has Mass    1.00783
   Atom    5 Element N  Has Mass   14.00307
   Atom    6 Element H  Has Mass    1.00783
   Atom    7 Element H  Has Mass    1.00783
   Molecular Mass:    47.019150 amu
   Principal axes and moments of inertia in amu*Bohr^2:
                             1           2           3
    Eigenvalues --       26.08226   143.55257   148.58434
          X               0.99988     0.00000    -0.01517
          Y              -0.00000     1.00000     0.00000
          Z               0.01517    -0.00000     0.99988
   Rotational Symmetry Number is   1
   The Molecule is an Asymmetric Top
   Translational Enthalpy:        0.889 kcal/mol
   Rotational Enthalpy:           0.889 kcal/mol
   Vibrational Enthalpy:         33.253 kcal/mol
   gas constant (RT):             0.592 kcal/mol
   Translational Entropy:        37.469  cal/mol.K
   Rotational Entropy:           20.947  cal/mol.K
   Vibrational Entropy:           4.451  cal/mol.K

   Total Enthalpy:               35.623 kcal/mol
   Total Entropy:                62.867  cal/mol.K
Archival summary:
1\1\mm2.localdomain\FREQ\MP2\6-311+G**\i115\xuedong\WedMay1510:23:592019WedMay1510:23:592019\0\\#,FREQ,MP2,6-311+G**,\\0,1\Si\H,1,1.47502\H,1,1.47502,2,110.969\H,1,1.48245,2,107.541,3,-117.363,0\N,1,1.73407,2,107.61,3,117.49,0\H,5,1.00963,1,120.017,2,49.0573,0\H,5,1.00963,1,120.018,2,-168.724,0\\HF=-346.334957\MP2=-346.63309\\@

 Total job time:  150.37s(wall), 440.44s(cpu) 
 Wed May 15 10:23:59 2019

        *************************************************************
        *                                                           *
        *  Thank you very much for using Q-Chem.  Have a nice day.  *
        *                                                           *
        *************************************************************


