
Running Job 1 of 2 25.freq.qcinp
qchem 25.freq.qcinp_15999.0 /scratch/xuedong/qchem15999/ 1
/home/qwang/software/qchem5.1/exe/qcprog.exe_s 25.freq.qcinp_15999.0 /scratch/xuedong/qchem15999/
Check license passed

                  Welcome to Q-Chem
     A Quantum Leap Into The Future Of Chemistry


 Q-Chem 5.1, Q-Chem, Inc., Pleasanton, CA (2018)

 Yihan Shao,  Zhengting Gan,  E. Epifanovsky,  A. T. B. Gilbert,  M. Wormit,  
 J. Kussmann,  A. W. Lange,  A. Behn,  Jia Deng,  Xintian Feng,  D. Ghosh,  
 M. Goldey,  P. R. Horn,  L. D. Jacobson,  I. Kaliman,  T. Kus,  A. Landau,  
 Jie Liu,  E. I. Proynov,  R. M. Richard,  R. P. Steele,  E. J. Sundstrom,  
 H. L. Woodcock III,  P. M. Zimmerman,  D. Zuev,  B. Albrecht,  E. Alguire,  
 S. A. Baeppler,  D. Barton,  Z. Benda,  Y. A. Bernard,  E. J. Berquist,  
 K. B. Bravaya,  H. Burton,  D. Casanova,  Chun-Min Chang,  Yunqing Chen,  
 A. Chien,  K. D. Closser,  M. P. Coons,  S. Coriani,  S. Dasgupta,  
 A. L. Dempwolff,  M. Diedenhofen,  Hainam Do,  R. G. Edgar,  Po-Tung Fang,  
 S. Faraji,  S. Fatehi,  Qingguo Feng,  K. D. Fenk,  J. Fosso-Tande,  
 Qinghui Ge,  A. Ghysels,  G. Gidofalvi,  J. Gomes,  J. Gonthier,  A. Gunina,  
 D. Hait,  M. W. D. Hanson-Heine,  P. H. P. Harbach,  A. W. Hauser,  
 J. E. Herr,  E. G. Hohenstein,  Z. C. Holden,  Kerwin Hui,  B. C. Huynh,  
 T.-C. Jagau,  Hyunjun Ji,  B. Kaduk,  K. Khistyaev,  Jaehoon Kim,  
 P. Klunzinger,  K. Koh,  D. Kosenkov,  L. Koulias,  T. Kowalczyk,  
 C. M. Krauter,  A. Kunitsa,  Ka Un Lao,  A. Laurent,  K. V. Lawler,  
 Joonho Lee,  D. Lefrancois,  S. Lehtola,  D. S. Levine,  Yi-Pei Li,  
 You-Sheng Lin,  Fenglai Liu,  E. Livshits,  A. Luenser,  P. Manohar,  
 E. Mansoor,  S. F. Manzer,  Shan-Ping Mao,  Yuezhi Mao,  N. Mardirossian,  
 A. V. Marenich,  T. Markovich,  L. A. Martinez-Martinez,  S. A. Maurer,  
 N. J. Mayhall,  S. C. McKenzie,  J.-M. Mewes,  A. F. Morrison,  
 J. W. Mullinax,  K. Nanda,  T. S. Nguyen-Beck,  R. Olivares-Amaya,  
 J. A. Parkhill,  T. M. Perrine,  F. Plasser,  P. Pokhilko,  S. Prager,  
 A. Prociuk,  E. Ramos,  D. R. Rehn,  F. Rob,  M. Schneider,  N. Sergueev,  
 S. M. Sharada,  S. Sharma,  D. W. Small,  T. Stauch,  T. Stein,  
 Yu-Chuan Su,  A. J. W. Thom,  A. Tkatchenko,  T. Tsuchimochi,  N. M. Tubman,  
 L. Vogt,  M. L. Vidal,  O. Vydrov,  M. A. Watson,  J. Wenzel,  
 M. de Wergifosse,  T. A. Wesolowski,  A. White,  J. Witte,  A. Yamada,  
 Jun Yang,  K. Yao,  S. Yeganeh,  S. R. Yost,  Zhi-Qiang You,  A. Zech,  
 Igor Ying Zhang,  Xing Zhang,  Yan Zhao,  Ying Zhu,  B. R. Brooks,  
 G. K. L. Chan,  C. J. Cramer,  M. S. Gordon,  W. J. Hehre,  A. Klamt,  
 M. W. Schmidt,  C. D. Sherrill,  D. G. Truhlar,  A. Aspuru-Guzik,  R. Baer,  
 A. T. Bell,  N. A. Besley,  Jeng-Da Chai,  R. A. DiStasio Jr.,  A. Dreuw,  
 B. D. Dunietz,  T. R. Furlani,  Chao-Ping Hsu,  Yousung Jung,  Jing Kong,  
 D. S. Lambrecht,  WanZhen Liang,  C. Ochsenfeld,  V. A. Rassolov,  
 L. V. Slipchenko,  J. E. Subotnik,  T. Van Voorhis,  J. M. Herbert,  
 A. I. Krylov,  P. M. W. Gill,  M. Head-Gordon

 Contributors to earlier versions of Q-Chem not listed above: 
 R. D. Adamson,  B. Austin,  J. Baker,  G. J. O. Beran,  K. Brandhorst,  
 S. T. Brown,  E. F. C. Byrd,  A. K. Chakraborty,  C.-L. Cheng,  
 Siu Hung Chien,  D. M. Chipman,  D. L. Crittenden,  H. Dachsel,  
 R. J. Doerksen,  A. D. Dutoi,  L. Fusti-Molnar,  W. A. Goddard III,  
 A. Golubeva-Zadorozhnaya,  S. R. Gwaltney,  G. Hawkins,  A. Heyden,  
 S. Hirata,  G. Kedziora,  F. J. Keil,  C. Kelley,  Jihan Kim,  R. A. King,  
 R. Z. Khaliullin,  P. P. Korambath,  W. Kurlancheek,  A. M. Lee,  M. S. Lee,  
 S. V. Levchenko,  Ching Yeh Lin,  D. Liotard,  R. C. Lochan,  I. Lotan,  
 P. E. Maslen,  N. Nair,  D. P. O'Neill,  D. Neuhauser,  E. Neuscamman,  
 C. M. Oana,  R. Olson,  B. Peters,  R. Peverati,  P. A. Pieniazek,  
 Y. M. Rhee,  J. Ritchie,  M. A. Rohrdanz,  E. Rosta,  N. J. Russ,  
 H. F. Schaefer III,  N. E. Schultz,  N. Shenvi,  A. C. Simmonett,  A. Sodt,  
 D. Stuck,  K. S. Thanthiriwatte,  V. Vanovschi,  Tao Wang,  A. Warshel,  
 C. F. Williams,  Q. Wu,  X. Xu,  W. Zhang

 Please cite Q-Chem as follows:
 Y. Shao et al., Mol. Phys. 113, 184-215 (2015)
 DOI: 10.1080/00268976.2014.952696

 Q-Chem 5.1.0 for Intel X86 EM64T Linux

 Parts of Q-Chem use Armadillo 8.300.2 (Tropical Shenanigans).
 http://arma.sourceforge.net/

 Q-Chem begins on Wed May 15 10:16:51 2019  

Host: 
0

     Scratch files written to /scratch/xuedong/qchem15999//
 May118 |scratch|qcdevops|jenkins|workspace|build_RNUM 6581   
Processing $rem in /home/qwang/software/qchem5.1/config/preferences.
 MEM_TOTAL  2000 
Core orbitals will be frozen

Checking the input file for inconsistencies... 	...done.

--------------------------------------------------------------
User input:
--------------------------------------------------------------
$molecule
0 1
H       2.003  -0.609   1.060
Si       1.584   0.000   0.000
H       2.003   1.223   0.003
H       2.014  -0.609  -1.055
O      -0.035  -0.008  -0.014
H      -0.290   0.465   0.805
$end

$rem
JOBTYPE  =  opt
METHOD  =  MP2
BASIS  =  6-311G+(d,p)
SCF_MAX_CYCLES  =  200
GEOM_OPT_MAX_CYCLES  =  300
GEOM_OPT_TOL_DISPLACEMENT = 120
GEOM_OPT_TOL_ENERGY = 10
GEOM_OPT_TOL_GRADIENT = 20
$end
--------------------------------------------------------------
 ----------------------------------------------------------------
             Standard Nuclear Orientation (Angstroms)
    I     Atom           X                Y                Z
 ----------------------------------------------------------------
    1      H       0.8943667359     0.6498808416     1.0580849590
    2      Si      0.5223319054     0.0078918102     0.0000291153
    3      H       0.8942337593     0.6526685293    -1.0569718277
    4      H       1.0421464633    -1.1747311460    -0.0013008285
    5      O      -1.0909379284    -0.1291535178    -0.0001172224
    6      H      -1.4158902063     0.7949245740     0.0007178626
 ----------------------------------------------------------------
 Molecular Point Group                 C1    NOp =  1
 Largest Abelian Subgroup              C1    NOp =  1
 Nuclear Repulsion Energy =    68.3401309125 hartrees
 There are       13 alpha and       13 beta electrons
 Requested basis set is 6-311+G(d,p)
 There are 35 shells and 76 basis functions

 Total QAlloc Memory Limit   2000 MB
 Mega-Array Size       188 MB
 MEM_STATIC part       192 MB
 A cutoff of  1.0D-11 yielded    628 shell pairs
 There are      3001 function pairs (      3166 Cartesian)
 
 -------------------------------------------------------
 OpenMP Integral Computing Module                       
 Release: version 1.0, May 2013, Q-Chem Inc. Pittsburgh 
 -------------------------------------------------------
 Integral Job Info:
 Integral job number is                      11
 Integral operator is                         1
 short-range coefficients                     0
 long-range coefficients              100000000
 Omega coefficients                           0
 if combine SR and LR in K                    0
 Integral screening is                        0
 Integral computing path is                   2
 max size of driver memory is            800000
 size of driver memory is                593474
 size of scratch memory is              4204008
 max col of scratch BK array               1296
 max len of scratch array in speh3          155
 max len of scratch index in speh4           18
 max int batch size is                      520
 min int batch size is                       52
 fixed nKL is                                52
 max L of basis functions is                  2
 order of int derivative is                   0
 number of shells is                         35
 number of basis is                          78
 number of cartesian basis is                78
 number of contracted shell pairs           628
 number of primitive shell pairs           1638
 maxK2 (contraction) of shell pair           36
 max number of K2 of shell pair               1
 max number of CS2 of shell pair             85
 max number of PS2 of shell pair            186
 mem total for path MDJ                  509368
 -------------------------------------------------------
 Smallest overlap matrix eigenvalue = 2.06E-03

 Scale SEOQF with 1.000000e-01/1.000000e-01/1.000000e-01

 Standard Electronic Orientation quadrupole field applied
 Nucleus-field energy     =     0.0000000006 hartrees
 Guess from superposition of atomic densities
 Warning:  Energy on first SCF cycle will be non-variational
 SAD guess density has 26.000000 electrons

 -----------------------------------------------------------------------
  General SCF calculation program by
  Eric Jon Sundstrom, Paul Horn, Yuezhi Mao, Dmitri Zuev, Alec White,
  David Stuck, Shaama M.S., Shane Yost, Joonho Lee, David Small,
  Daniel Levine, Susi Lehtola, Hugh Burton, Evgeny Epifanovsky
 -----------------------------------------------------------------------
 Hartree-Fock
 using 4 threads for integral computing
 -------------------------------------------------------
 OpenMP Integral computing Module                
 Release: version 1.0, May 2013, Q-Chem Inc. Pittsburgh 
 -------------------------------------------------------
 A restricted SCF calculation will be
 performed using DIIS
 SCF converges when DIIS error is below 1.0e-08
 ---------------------------------------
  Cycle       Energy         DIIS error
 ---------------------------------------
    1    -366.4892961131      7.57e-02  
    2    -366.0813423542      8.45e-03  
    3    -366.1182727898      5.10e-03  
    4    -366.1310251541      7.33e-04  
    5    -366.1316001013      1.37e-04  
    6    -366.1316331541      3.25e-05  
    7    -366.1316353645      7.94e-06  
    8    -366.1316354742      1.85e-06  
    9    -366.1316354795      3.81e-07  
   10    -366.1316354798      5.62e-08  
   11    -366.1316354798      1.34e-08  
   12    -366.1316354798      2.96e-09  Convergence criterion met
 ---------------------------------------
 SCF time:   CPU 3.28s  wall 1.00s 
 SCF   energy in the final basis set =     -366.1316354798
 Total energy in the final basis set =     -366.1316354798
 
 Components of the MP2 correlation energy:
        aaaa  correlation energy =        -0.0347831481 au
        abab  correlation energy =        -0.2487133421 au
        bbbb  correlation energy =        -0.0347831481 au
        non-Brillouin singles    =        -0.0000000000 au

 Total  MP2   correlation energy =                    -0.31827964 au
        MP2         total energy =                  -366.44991512 au
  Entering Z-vector solver.
   1         0           1      0.000177    0.000177
   2         0           1      0.000066    0.000066
   3         0           1      0.000017    0.000017
   4         0           1      0.000004    0.000004
   5         1           0      0.000000    0.000000    Roots Converged
 
 --------------------------------------------------------------
 
                    Orbital Energies (a.u.)
 --------------------------------------------------------------
 
 Alpha MOs
 -- Occupied --
-68.744 -20.556  -6.106  -4.213  -4.212  -4.212  -1.348  -0.773
 -0.669  -0.571  -0.566  -0.502  -0.473
 -- Virtual --
  0.057   0.063   0.078   0.081   0.168   0.182   0.198   0.230
  0.270   0.281   0.293   0.324   0.359   0.364   0.375   0.485
  0.545   0.550   0.613   0.667   0.762   0.797   0.825   1.178
  1.201   1.220   1.309   1.327   1.335   1.393   1.395   1.455
  1.529   1.594   1.605   1.732   1.748   1.923   2.030   2.048
  2.064   2.330   2.404   2.647   2.687   2.865   2.926   2.982
  3.116   3.363   3.492   3.531   3.741   4.219   5.530   5.601
  6.008   6.258  12.461  12.521  12.536  51.580 144.105
 --------------------------------------------------------------
 
          Ground-State Mulliken Net Atomic Charges

     Atom                 Charge (a.u.)
  ----------------------------------------
      1 H                    -0.217746
      2 Si                    0.937338
      3 H                    -0.217723
      4 H                    -0.199189
      5 O                    -0.548848
      6 H                     0.246169
  ----------------------------------------
  Sum of atomic charges =    -0.000000

 -----------------------------------------------------------------
                    Cartesian Multipole Moments
 -----------------------------------------------------------------
    Charge (ESU x 10^10)
                 0.0000
    Dipole Moment (Debye)
         X       0.6701      Y       1.5625      Z       0.0020
       Tot       1.7001
    Quadrupole Moments (Debye-Ang)
        XX     -21.0927     XY      -3.0053     YY     -19.6317
        XZ      -0.0024     YZ       0.0021     ZZ     -21.4571
    Octopole Moments (Debye-Ang^2)
       XXX      -2.7418    XXY       4.5449    XYY      -4.6546
       YYY       2.2425    XXZ       0.0049    XYZ      -0.0020
       YYZ       0.0068    XZZ      -2.2170    YZZ      -1.4211
       ZZZ      -0.0020
    Hexadecapole Moments (Debye-Ang^3)
      XXXX    -102.5232   XXXY      -7.2658   XXYY     -23.5914
      XYYY      -2.3293   YYYY     -39.5593   XXXZ      -0.0045
      XXYZ       0.0038   XYYZ       0.0030   YYYZ       0.0052
      XXZZ     -26.4824   XYZZ      -1.8938   YYZZ     -13.6420
      XZZZ      -0.0037   YZZZ       0.0027   ZZZZ     -39.9881
 -----------------------------------------------------------------
 DrvMan is completing analytic gradient of the MP2 energy
 MP2 relaxed dipole moment
            1
    1   0.2636250
    2   0.6147402
    3   0.0007764
	Magnitude:	 0.669 au	 1.700 Debye
 MP2 energy read as -366.449915
 Full Analytical Gradient of MP2 Energy (in au.)
             1             2             3             4             5
    1   -0.03285830    0.05803480   -0.03273581   -0.04066325    0.04242278
    2   -0.05415122    0.01218312   -0.05415266    0.09689622   -0.02138247
    3   -0.08667765    0.00032410    0.08623677    0.00012090   -0.00002352
             6
    1    0.00579977
    2    0.02060701
    3    0.00001939
 Gradient time:  CPU 0.12 s  wall 0.12 s
 Geometry Optimization Parameters
   NAtoms,    NIC,     NZ,  NCons,   NDum,   NFix, NCnnct, MaxDiis
        6      27       0       0       0       0       0       0


** GEOMETRY OPTIMIZATION IN DELOCALIZED INTERNAL COORDINATES **
   Searching for a Minimum

   Optimization Cycle:   1

                       Coordinates (Angstroms)
     ATOM                X               Y               Z
      1  H         0.8943667359    0.6498808416    1.0580849590
      2  Si        0.5223319054    0.0078918102    0.0000291153
      3  H         0.8942337593    0.6526685293   -1.0569718277
      4  H         1.0421464633   -1.1747311460   -0.0013008285
      5  O        -1.0909379284   -0.1291535178   -0.0001172224
      6  H        -1.4158902063    0.7949245740    0.0007178626
   Point Group: c1    Number of degrees of freedom:    12


   Energy is   -366.449915118


 Attempting to Generate Delocalized Internal Coordinates

 12 Hessian modes will be used to form the next step
  Hessian Eigenvalues:
     0.029994    0.110457    0.110742    0.160000    0.160000    0.160000
     0.160000    0.305904    0.306377    0.306844    0.476984    0.514726

 Minimum Search - Taking Simple RFO Step
 Searching for Lamda that Minimizes Along All modes
 Value Taken    Lamda =  -0.09213279
 Calculated Step too Large.  Step scaled by  0.624136
 Step Taken.  Stepsize is  0.300000

                             Maximum     Tolerance    Cnvgd?
         Gradient           0.141314      0.000020      NO
         Displacement       0.202066      0.000120      NO
         Energy change     *********      0.000000      NO


 New Cartesian Coordinates Obtained by Inverse Iteration

 Displacement from previous Coordinates is:  0.330318
 ----------------------------------------------------------------
             Standard Nuclear Orientation (Angstroms)
    I     Atom           X                Y                Z
 ----------------------------------------------------------------
    1      H       0.9373627003     0.6918668816     1.1276139611
    2      Si      0.5224622643     0.0105438715     0.0000000535
    3      H       0.9371872312     0.6946871575    -1.1262961663
    4      H       1.0543438067    -1.2615363023    -0.0014620349
    5      O      -1.1195797628    -0.1162097672    -0.0001141488
    6      H      -1.4855255106     0.7821292503     0.0007003935
 ----------------------------------------------------------------
 Molecular Point Group                 C1    NOp =  1
 Largest Abelian Subgroup              C1    NOp =  1
 Nuclear Repulsion Energy =    66.2912772110 hartrees
 There are       13 alpha and       13 beta electrons
 Applying Cartesian multipole field
    Component          Value
    ---------          -----
     (2,0,0)        1.00000E-11
     (0,2,0)        2.00000E-11
     (0,0,2)       -3.00000E-11
 Nucleus-field energy     =     0.0000000006 hartrees
 Requested basis set is 6-311+G(d,p)
 There are 35 shells and 76 basis functions
 A cutoff of  1.0D-11 yielded    628 shell pairs
 There are      3001 function pairs (      3166 Cartesian)
 Smallest overlap matrix eigenvalue = 2.33E-03
 Guess MOs from SCF MO coefficient file
 Reading MOs from coefficient file
 Reading MOs from coefficient file

 -----------------------------------------------------------------------
  General SCF calculation program by
  Eric Jon Sundstrom, Paul Horn, Yuezhi Mao, Dmitri Zuev, Alec White,
  David Stuck, Shaama M.S., Shane Yost, Joonho Lee, David Small,
  Daniel Levine, Susi Lehtola, Hugh Burton, Evgeny Epifanovsky
 -----------------------------------------------------------------------
 Hartree-Fock
 using 4 threads for integral computing
 -------------------------------------------------------
 OpenMP Integral computing Module                
 Release: version 1.0, May 2013, Q-Chem Inc. Pittsburgh 
 -------------------------------------------------------
 A restricted SCF calculation will be
 performed using DIIS
 SCF converges when DIIS error is below 1.0e-08
 ---------------------------------------
  Cycle       Energy         DIIS error
 ---------------------------------------
    1    -366.1065804230      7.05e-03  
    2    -366.1724687455      6.38e-04  
    3    -366.1727482100      1.25e-04  
    4    -366.1727647264      4.10e-05  
    5    -366.1727675859      1.48e-05  
    6    -366.1727678513      6.18e-06  
    7    -366.1727678968      1.35e-06  
    8    -366.1727678994      2.28e-07  
    9    -366.1727678995      4.85e-08  
   10    -366.1727678995      1.29e-08  
   11    -366.1727678995      2.60e-09  Convergence criterion met
 ---------------------------------------
 SCF time:   CPU 3.03s  wall 1.00s 
 SCF   energy in the final basis set =     -366.1727678995
 Total energy in the final basis set =     -366.1727678995
 
 Components of the MP2 correlation energy:
        aaaa  correlation energy =        -0.0346351701 au
        abab  correlation energy =        -0.2480582636 au
        bbbb  correlation energy =        -0.0346351701 au
        non-Brillouin singles    =        -0.0000000000 au

 Total  MP2   correlation energy =                    -0.31732860 au
        MP2         total energy =                  -366.49009650 au
  Entering Z-vector solver.
   1         0           1      0.000178    0.000178
   2         0           1      0.000067    0.000067
   3         0           1      0.000018    0.000018
   4         0           1      0.000004    0.000004
   5         1           0      0.000000    0.000000    Roots Converged
 
 --------------------------------------------------------------
 
                    Orbital Energies (a.u.)
 --------------------------------------------------------------
 
 Alpha MOs
 -- Occupied --
-68.773 -20.558  -6.126  -4.233  -4.232  -4.232  -1.345  -0.762
 -0.663  -0.562  -0.560  -0.492  -0.468
 -- Virtual --
  0.057   0.064   0.079   0.081   0.165   0.177   0.191   0.224
  0.267   0.280   0.288   0.311   0.359   0.365   0.371   0.481
  0.537   0.537   0.598   0.674   0.724   0.791   0.831   1.139
  1.144   1.179   1.300   1.304   1.315   1.407   1.411   1.458
  1.524   1.601   1.601   1.723   1.744   1.889   1.964   1.966
  2.013   2.286   2.342   2.536   2.544   2.818   2.914   2.965
  3.064   3.326   3.497   3.512   3.707   4.228   5.530   5.586
  6.024   6.245  12.392  12.407  12.422  51.578 144.061
 --------------------------------------------------------------
 
          Ground-State Mulliken Net Atomic Charges

     Atom                 Charge (a.u.)
  ----------------------------------------
      1 H                    -0.200641
      2 Si                    0.882521
      3 H                    -0.200645
      4 H                    -0.179624
      5 O                    -0.556403
      6 H                     0.254792
  ----------------------------------------
  Sum of atomic charges =    -0.000000

 -----------------------------------------------------------------
                    Cartesian Multipole Moments
 -----------------------------------------------------------------
    Charge (ESU x 10^10)
                 0.0000
    Dipole Moment (Debye)
         X       0.5725      Y       1.5469      Z       0.0017
       Tot       1.6494
    Quadrupole Moments (Debye-Ang)
        XX     -21.2647     XY      -3.1449     YY     -20.0779
        XZ      -0.0027     YZ       0.0020     ZZ     -21.8833
    Octopole Moments (Debye-Ang^2)
       XXX      -3.9323    XXY       4.6648    XYY      -4.8466
       YYY       1.9072    XXZ       0.0049    XYZ      -0.0020
       YYZ       0.0067    XZZ      -2.4530    YZZ      -1.5271
       ZZZ      -0.0022
    Hexadecapole Moments (Debye-Ang^3)
      XXXX    -107.2708   XXXY      -8.2126   XXYY     -25.0059
      XYYY      -2.4475   YYYY     -43.2218   XXXZ      -0.0063
      XXYZ       0.0036   XYYZ       0.0027   YYYZ       0.0039
      XXZZ     -28.2375   XYZZ      -1.8835   YYZZ     -14.8874
      XZZZ      -0.0044   YZZZ       0.0016   ZZZZ     -43.7884
 -----------------------------------------------------------------
 DrvMan is completing analytic gradient of the MP2 energy
 MP2 relaxed dipole moment
            1
    1   0.2252309
    2   0.6085855
    3   0.0006849
	Magnitude:	 0.649 au	 1.649 Debye
 MP2 energy read as -366.490097
 Full Analytical Gradient of MP2 Energy (in au.)
             1             2             3             4             5
    1   -0.01485856    0.02296518   -0.01481429   -0.01554565    0.01799869
    2   -0.02301103    0.00619754   -0.02301830    0.04110882   -0.01317004
    3   -0.03628527    0.00012237    0.03611388    0.00005346   -0.00001553
             6
    1    0.00425462
    2    0.01189300
    3    0.00001110
 Gradient time:  CPU 0.11 s  wall 0.11 s
 Geometry Optimization Parameters
   NAtoms,    NIC,     NZ,  NCons,   NDum,   NFix, NCnnct, MaxDiis
        6      27       0       0       0       0       0       0

 Cartesian Hessian Update
 Hessian Updated using BFGS Update


** GEOMETRY OPTIMIZATION IN DELOCALIZED INTERNAL COORDINATES **
   Searching for a Minimum

   Optimization Cycle:   2

                       Coordinates (Angstroms)
     ATOM                X               Y               Z
      1  H         0.9373627003    0.6918668816    1.1276139611
      2  Si        0.5224622643    0.0105438715    0.0000000535
      3  H         0.9371872312    0.6946871575   -1.1262961663
      4  H         1.0543438067   -1.2615363023   -0.0014620349
      5  O        -1.1195797628   -0.1162097672   -0.0001141488
      6  H        -1.4855255106    0.7821292503    0.0007003935
   Point Group: c1    Number of degrees of freedom:    12


   Energy is   -366.490096503

 Hessian Updated using BFGS Update

 10 Hessian modes will be used to form the next step
  Hessian Eigenvalues:
     0.029994    0.110457    0.110742    0.158259    0.160028    0.306098
     0.306614    0.369964    0.474685    0.513812

 Minimum Search - Taking Simple RFO Step
 Searching for Lamda that Minimizes Along All modes
 Value Taken    Lamda =  -0.01846181
 Step Taken.  Stepsize is  0.230146

                             Maximum     Tolerance    Cnvgd?
         Gradient           0.057934      0.000020      NO
         Displacement       0.119983      0.000120      NO
         Energy change     -0.040181      0.000000      NO


 New Cartesian Coordinates Obtained by Inverse Iteration

 Displacement from previous Coordinates is:  0.299014
 ----------------------------------------------------------------
             Standard Nuclear Orientation (Angstroms)
    I     Atom           X                Y                Z
 ----------------------------------------------------------------
    1      H       0.9902633549     0.7241226543     1.1729042632
    2      Si      0.5305199448     0.0188032461    -0.0000136093
    3      H       0.9901375541     0.7269569063    -1.1714672820
    4      H       1.0443884349    -1.3246922308    -0.0015843341
    5      O      -1.1354654041    -0.0988213844    -0.0000873030
    6      H      -1.5735931554     0.7551118999     0.0006903234
 ----------------------------------------------------------------
 Molecular Point Group                 C1    NOp =  1
 Largest Abelian Subgroup              C1    NOp =  1
 Nuclear Repulsion Energy =    64.8363180133 hartrees
 There are       13 alpha and       13 beta electrons
 Applying Cartesian multipole field
    Component          Value
    ---------          -----
     (2,0,0)        1.00000E-11
     (0,2,0)        2.00000E-11
     (0,0,2)       -3.00000E-11
 Nucleus-field energy     =     0.0000000007 hartrees
 Requested basis set is 6-311+G(d,p)
 There are 35 shells and 76 basis functions
 A cutoff of  1.0D-11 yielded    628 shell pairs
 There are      3001 function pairs (      3166 Cartesian)
 Smallest overlap matrix eigenvalue = 2.54E-03
 Guess MOs from SCF MO coefficient file
 Reading MOs from coefficient file
 Reading MOs from coefficient file

 -----------------------------------------------------------------------
  General SCF calculation program by
  Eric Jon Sundstrom, Paul Horn, Yuezhi Mao, Dmitri Zuev, Alec White,
  David Stuck, Shaama M.S., Shane Yost, Joonho Lee, David Small,
  Daniel Levine, Susi Lehtola, Hugh Burton, Evgeny Epifanovsky
 -----------------------------------------------------------------------
 Hartree-Fock
 using 4 threads for integral computing
 -------------------------------------------------------
 OpenMP Integral computing Module                
 Release: version 1.0, May 2013, Q-Chem Inc. Pittsburgh 
 -------------------------------------------------------
 A restricted SCF calculation will be
 performed using DIIS
 SCF converges when DIIS error is below 1.0e-08
 ---------------------------------------
  Cycle       Energy         DIIS error
 ---------------------------------------
    1    -366.1345713371      4.31e-03  
    2    -366.1848056505      5.45e-04  
    3    -366.1850598641      1.27e-04  
    4    -366.1850824585      4.99e-05  
    5    -366.1850868404      1.55e-05  
    6    -366.1850871836      6.42e-06  
    7    -366.1850872222      1.45e-06  
    8    -366.1850872254      2.99e-07  
    9    -366.1850872255      6.22e-08  
   10    -366.1850872255      1.40e-08  
   11    -366.1850872255      2.60e-09  Convergence criterion met
 ---------------------------------------
 SCF time:   CPU 2.99s  wall 1.00s 
 SCF   energy in the final basis set =     -366.1850872255
 Total energy in the final basis set =     -366.1850872255
 
 Components of the MP2 correlation energy:
        aaaa  correlation energy =        -0.0345289129 au
        abab  correlation energy =        -0.2476541927 au
        bbbb  correlation energy =        -0.0345289129 au
        non-Brillouin singles    =        -0.0000000000 au

 Total  MP2   correlation energy =                    -0.31671202 au
        MP2         total energy =                  -366.50179924 au
  Entering Z-vector solver.
   1         0           1      0.000179    0.000179
   2         0           1      0.000068    0.000068
   3         0           1      0.000018    0.000018
   4         0           1      0.000005    0.000005
   5         1           0      0.000000    0.000000    Roots Converged
 
 --------------------------------------------------------------
 
                    Orbital Energies (a.u.)
 --------------------------------------------------------------
 
 Alpha MOs
 -- Occupied --
-68.793 -20.559  -6.140  -4.247  -4.247  -4.246  -1.342  -0.760
 -0.657  -0.554  -0.554  -0.484  -0.464
 -- Virtual --
  0.057   0.065   0.080   0.082   0.163   0.174   0.187   0.218
  0.264   0.279   0.285   0.299   0.360   0.366   0.371   0.477
  0.528   0.532   0.584   0.680   0.707   0.788   0.843   1.102
  1.104   1.150   1.289   1.295   1.308   1.418   1.425   1.463
  1.526   1.598   1.618   1.725   1.740   1.859   1.910   1.920
  2.003   2.213   2.355   2.453   2.456   2.805   2.899   2.954
  3.020   3.298   3.478   3.506   3.696   4.239   5.531   5.574
  6.045   6.219  12.330  12.341  12.346  51.578 144.012
 --------------------------------------------------------------
 
          Ground-State Mulliken Net Atomic Charges

     Atom                 Charge (a.u.)
  ----------------------------------------
      1 H                    -0.190389
      2 Si                    0.857344
      3 H                    -0.190395
      4 H                    -0.167620
      5 O                    -0.576271
      6 H                     0.267332
  ----------------------------------------
  Sum of atomic charges =    -0.000000

 -----------------------------------------------------------------
                    Cartesian Multipole Moments
 -----------------------------------------------------------------
    Charge (ESU x 10^10)
                -0.0000
    Dipole Moment (Debye)
         X       0.4387      Y       1.5380      Z       0.0016
       Tot       1.5993
    Quadrupole Moments (Debye-Ang)
        XX     -21.1035     XY      -3.2835     YY     -20.4707
        XZ      -0.0029     YZ       0.0018     ZZ     -22.1844
    Octopole Moments (Debye-Ang^2)
       XXX      -5.9126    XXY       4.7043    XYY      -5.0208
       YYY       1.3279    XXZ       0.0050    XYZ      -0.0020
       YYZ       0.0064    XZZ      -2.7652    YZZ      -1.6896
       ZZZ      -0.0027
    Hexadecapole Moments (Debye-Ang^3)
      XXXX    -109.9230   XXXY      -9.5656   XXYY     -26.2188
      XYYY      -2.7218   YYYY     -46.0511   XXXZ      -0.0073
      XXYZ       0.0037   XYYZ       0.0026   YYYZ       0.0030
      XXZZ     -29.7071   XYZZ      -1.9439   YYZZ     -15.8272
      XZZZ      -0.0041   YZZZ       0.0008   ZZZZ     -46.5737
 -----------------------------------------------------------------
 DrvMan is completing analytic gradient of the MP2 energy
 MP2 relaxed dipole moment
            1
    1   0.1725953
    2   0.6050957
    3   0.0006221
	Magnitude:	 0.629 au	 1.599 Debye
 MP2 energy read as -366.501799
 Full Analytical Gradient of MP2 Energy (in au.)
             1             2             3             4             5
    1   -0.00461679    0.01100674   -0.00459631   -0.00387439   -0.00079027
    2   -0.00692505    0.00257296   -0.00691523    0.01237514   -0.00326025
    3   -0.01083470    0.00005444    0.01076524    0.00001673   -0.00000339
             6
    1    0.00287101
    2    0.00215243
    3    0.00000169
 Gradient time:  CPU 0.10 s  wall 0.10 s
 Geometry Optimization Parameters
   NAtoms,    NIC,     NZ,  NCons,   NDum,   NFix, NCnnct, MaxDiis
        6      27       0       0       0       0       0       0

 Cartesian Hessian Update
 Hessian Updated using BFGS Update


** GEOMETRY OPTIMIZATION IN DELOCALIZED INTERNAL COORDINATES **
   Searching for a Minimum

   Optimization Cycle:   3

                       Coordinates (Angstroms)
     ATOM                X               Y               Z
      1  H         0.9902633549    0.7241226543    1.1729042632
      2  Si        0.5305199448    0.0188032461   -0.0000136093
      3  H         0.9901375541    0.7269569063   -1.1714672820
      4  H         1.0443884349   -1.3246922308   -0.0015843341
      5  O        -1.1354654041   -0.0988213844   -0.0000873030
      6  H        -1.5735931554    0.7551118999    0.0006903234
   Point Group: c1    Number of degrees of freedom:    12


   Energy is   -366.501799244

 Hessian Updated using BFGS Update

 11 Hessian modes will be used to form the next step
  Hessian Eigenvalues:
     0.029994    0.110455    0.110742    0.147896    0.160014    0.160089
     0.290059    0.306129    0.307137    0.479862    0.515009

 Minimum Search - Taking Simple RFO Step
 Searching for Lamda that Minimizes Along All modes
 Value Taken    Lamda =  -0.00241563
 Step Taken.  Stepsize is  0.104704

                             Maximum     Tolerance    Cnvgd?
         Gradient           0.014254      0.000020      NO
         Displacement       0.053847      0.000120      NO
         Energy change     -0.011703      0.000000      NO


 New Cartesian Coordinates Obtained by Inverse Iteration

 Displacement from previous Coordinates is:  0.139589
 ----------------------------------------------------------------
             Standard Nuclear Orientation (Angstroms)
    I     Atom           X                Y                Z
 ----------------------------------------------------------------
    1      H       1.0141494246     0.7391633673     1.1925201337
    2      Si      0.5351427064     0.0237650910    -0.0000233254
    3      H       1.0140256145     0.7419691821    -1.1909990553
    4      H       1.0326365938    -1.3526693581    -0.0016523898
    5      O      -1.1338823426    -0.0896908107    -0.0000831838
    6      H      -1.6158212675     0.7389436199     0.0006798789
 ----------------------------------------------------------------
 Molecular Point Group                 C1    NOp =  1
 Largest Abelian Subgroup              C1    NOp =  1
 Nuclear Repulsion Energy =    64.3869247838 hartrees
 There are       13 alpha and       13 beta electrons
 Applying Cartesian multipole field
    Component          Value
    ---------          -----
     (2,0,0)        1.00000E-11
     (0,2,0)        2.00000E-11
     (0,0,2)       -3.00000E-11
 Nucleus-field energy     =     0.0000000007 hartrees
 Requested basis set is 6-311+G(d,p)
 There are 35 shells and 76 basis functions
 A cutoff of  1.0D-11 yielded    628 shell pairs
 There are      3001 function pairs (      3166 Cartesian)
 Smallest overlap matrix eigenvalue = 2.62E-03
 Guess MOs from SCF MO coefficient file
 Reading MOs from coefficient file
 Reading MOs from coefficient file

 -----------------------------------------------------------------------
  General SCF calculation program by
  Eric Jon Sundstrom, Paul Horn, Yuezhi Mao, Dmitri Zuev, Alec White,
  David Stuck, Shaama M.S., Shane Yost, Joonho Lee, David Small,
  Daniel Levine, Susi Lehtola, Hugh Burton, Evgeny Epifanovsky
 -----------------------------------------------------------------------
 Hartree-Fock
 using 4 threads for integral computing
 -------------------------------------------------------
 OpenMP Integral computing Module                
 Release: version 1.0, May 2013, Q-Chem Inc. Pittsburgh 
 -------------------------------------------------------
 A restricted SCF calculation will be
 performed using DIIS
 SCF converges when DIIS error is below 1.0e-08
 ---------------------------------------
  Cycle       Energy         DIIS error
 ---------------------------------------
    1    -366.1655288935      1.72e-03  
    2    -366.1866835439      2.45e-04  
    3    -366.1867438741      6.27e-05  
    4    -366.1867502053      2.48e-05  
    5    -366.1867512753      6.82e-06  
    6    -366.1867513467      2.48e-06  
    7    -366.1867513540      8.57e-07  
    8    -366.1867513548      1.60e-07  
    9    -366.1867513548      3.55e-08  
   10    -366.1867513548      7.22e-09  Convergence criterion met
 ---------------------------------------
 SCF time:   CPU 2.73s  wall 0.00s 
 SCF   energy in the final basis set =     -366.1867513548
 Total energy in the final basis set =     -366.1867513548
 
 Components of the MP2 correlation energy:
        aaaa  correlation energy =        -0.0344882540 au
        abab  correlation energy =        -0.2474883815 au
        bbbb  correlation energy =        -0.0344882540 au
        non-Brillouin singles    =        -0.0000000000 au

 Total  MP2   correlation energy =                    -0.31646489 au
        MP2         total energy =                  -366.50321624 au
  Entering Z-vector solver.
   1         0           1      0.000179    0.000179
   2         0           1      0.000068    0.000068
   3         0           1      0.000018    0.000018
   4         0           1      0.000005    0.000005
   5         1           0      0.000000    0.000000    Roots Converged
 
 --------------------------------------------------------------
 
                    Orbital Energies (a.u.)
 --------------------------------------------------------------
 
 Alpha MOs
 -- Occupied --
-68.801 -20.559  -6.145  -4.253  -4.252  -4.252  -1.341  -0.761
 -0.653  -0.552  -0.552  -0.480  -0.461
 -- Virtual --
  0.057   0.066   0.081   0.083   0.162   0.173   0.185   0.214
  0.262   0.278   0.283   0.296   0.360   0.367   0.372   0.476
  0.524   0.530   0.577   0.677   0.706   0.788   0.850   1.084
  1.087   1.142   1.286   1.294   1.307   1.424   1.433   1.465
  1.528   1.596   1.627   1.729   1.738   1.846   1.889   1.902
  2.004   2.185   2.355   2.417   2.425   2.804   2.892   2.951
  3.001   3.288   3.453   3.507   3.702   4.239   5.531   5.569
  6.047   6.208  12.302  12.315  12.328  51.578 143.990
 --------------------------------------------------------------
 
          Ground-State Mulliken Net Atomic Charges

     Atom                 Charge (a.u.)
  ----------------------------------------
      1 H                    -0.187098
      2 Si                    0.847691
      3 H                    -0.187104
      4 H                    -0.163482
      5 O                    -0.584648
      6 H                     0.274640
  ----------------------------------------
  Sum of atomic charges =    -0.000000

 -----------------------------------------------------------------
                    Cartesian Multipole Moments
 -----------------------------------------------------------------
    Charge (ESU x 10^10)
                -0.0000
    Dipole Moment (Debye)
         X       0.3340      Y       1.5273      Z       0.0015
       Tot       1.5634
    Quadrupole Moments (Debye-Ang)
        XX     -20.9114     XY      -3.3333     YY     -20.6660
        XZ      -0.0031     YZ       0.0016     ZZ     -22.3184
    Octopole Moments (Debye-Ang^2)
       XXX      -7.2505    XXY       4.6696    XYY      -5.1491
       YYY       0.9883    XXZ       0.0050    XYZ      -0.0019
       YYZ       0.0063    XZZ      -2.9904    YZZ      -1.7961
       ZZZ      -0.0030
    Hexadecapole Moments (Debye-Ang^3)
      XXXX    -109.8946   XXXY     -10.2162   XXYY     -26.7038
      XYYY      -2.8621   YYYY     -47.4006   XXXZ      -0.0084
      XXYZ       0.0034   XYYZ       0.0024   YYYZ       0.0021
      XXZZ     -30.2580   XYZZ      -1.9930   YYZZ     -16.2733
      XZZZ      -0.0046   YZZZ      -0.0001   ZZZZ     -47.8595
 -----------------------------------------------------------------
 DrvMan is completing analytic gradient of the MP2 energy
 MP2 relaxed dipole moment
            1
    1   0.1313908
    2   0.6008785
    3   0.0005759
	Magnitude:	 0.615 au	 1.563 Debye
 MP2 energy read as -366.503216
 Full Analytical Gradient of MP2 Energy (in au.)
             1             2             3             4             5
    1   -0.00093814    0.00464066   -0.00093165   -0.00067936   -0.00295195
    2   -0.00119609    0.00113381   -0.00118991    0.00193642   -0.00155147
    3   -0.00182380    0.00001823    0.00180417    0.00000221   -0.00000111
             6
    1    0.00086044
    2    0.00086724
    3    0.00000029
 Gradient time:  CPU 0.11 s  wall 0.11 s
 Geometry Optimization Parameters
   NAtoms,    NIC,     NZ,  NCons,   NDum,   NFix, NCnnct, MaxDiis
        6      27       0       0       0       0       0       0

 Cartesian Hessian Update
 Hessian Updated using BFGS Update


** GEOMETRY OPTIMIZATION IN DELOCALIZED INTERNAL COORDINATES **
   Searching for a Minimum

   Optimization Cycle:   4

                       Coordinates (Angstroms)
     ATOM                X               Y               Z
      1  H         1.0141494246    0.7391633673    1.1925201337
      2  Si        0.5351427064    0.0237650910   -0.0000233254
      3  H         1.0140256145    0.7419691821   -1.1909990553
      4  H         1.0326365938   -1.3526693581   -0.0016523898
      5  O        -1.1338823426   -0.0896908107   -0.0000831838
      6  H        -1.6158212675    0.7389436199    0.0006798789
   Point Group: c1    Number of degrees of freedom:    12


   Energy is   -366.503216244

 Hessian Updated using BFGS Update

 12 Hessian modes will be used to form the next step
  Hessian Eigenvalues:
     0.029994    0.110459    0.110742    0.128900    0.160000    0.160027
     0.160382    0.268103    0.306123    0.307096    0.488506    0.515020

 Minimum Search - Taking Simple RFO Step
 Searching for Lamda that Minimizes Along All modes
 Value Taken    Lamda =  -0.00013494
 Step Taken.  Stepsize is  0.029355

                             Maximum     Tolerance    Cnvgd?
         Gradient           0.003455      0.000020      NO
         Displacement       0.014819      0.000120      NO
         Energy change     -0.001417      0.000000      NO


 New Cartesian Coordinates Obtained by Inverse Iteration

 Displacement from previous Coordinates is:  0.038338
 ----------------------------------------------------------------
             Standard Nuclear Orientation (Angstroms)
    I     Atom           X                Y                Z
 ----------------------------------------------------------------
    1      H       1.0211397799     0.7422235953     1.1963296924
    2      Si      0.5350660013     0.0250197112    -0.0000320151
    3      H       1.0210161252     0.7450144955    -1.1947837352
    4      H       1.0291174627    -1.3584480355    -0.0016671720
    5      O      -1.1314395230    -0.0856209296    -0.0000846751
    6      H      -1.6286491169     0.7332922546     0.0006799631
 ----------------------------------------------------------------
 Molecular Point Group                 C1    NOp =  1
 Largest Abelian Subgroup              C1    NOp =  1
 Nuclear Repulsion Energy =    64.3593622840 hartrees
 There are       13 alpha and       13 beta electrons
 Applying Cartesian multipole field
    Component          Value
    ---------          -----
     (2,0,0)        1.00000E-11
     (0,2,0)        2.00000E-11
     (0,0,2)       -3.00000E-11
 Nucleus-field energy     =     0.0000000007 hartrees
 Requested basis set is 6-311+G(d,p)
 There are 35 shells and 76 basis functions
 A cutoff of  1.0D-11 yielded    628 shell pairs
 There are      3001 function pairs (      3166 Cartesian)
 Smallest overlap matrix eigenvalue = 2.63E-03
 Guess MOs from SCF MO coefficient file
 Reading MOs from coefficient file
 Reading MOs from coefficient file

 -----------------------------------------------------------------------
  General SCF calculation program by
  Eric Jon Sundstrom, Paul Horn, Yuezhi Mao, Dmitri Zuev, Alec White,
  David Stuck, Shaama M.S., Shane Yost, Joonho Lee, David Small,
  Daniel Levine, Susi Lehtola, Hugh Burton, Evgeny Epifanovsky
 -----------------------------------------------------------------------
 Hartree-Fock
 using 4 threads for integral computing
 -------------------------------------------------------
 OpenMP Integral computing Module                
 Release: version 1.0, May 2013, Q-Chem Inc. Pittsburgh 
 -------------------------------------------------------
 A restricted SCF calculation will be
 performed using DIIS
 SCF converges when DIIS error is below 1.0e-08
 ---------------------------------------
  Cycle       Energy         DIIS error
 ---------------------------------------
    1    -366.1836791822      5.04e-04  
    2    -366.1869808984      7.32e-05  
    3    -366.1869868866      2.71e-05  
    4    -366.1869876664      1.43e-05  
    5    -366.1869878610      3.60e-06  
    6    -366.1869878845      7.43e-07  
    7    -366.1869878855      2.11e-07  
    8    -366.1869878856      5.15e-08  
    9    -366.1869878856      1.17e-08  
   10    -366.1869878856      2.31e-09  Convergence criterion met
 ---------------------------------------
 SCF time:   CPU 2.72s  wall 0.00s 
 SCF   energy in the final basis set =     -366.1869878856
 Total energy in the final basis set =     -366.1869878856
 
 Components of the MP2 correlation energy:
        aaaa  correlation energy =        -0.0344688630 au
        abab  correlation energy =        -0.2473698890 au
        bbbb  correlation energy =        -0.0344688630 au
        non-Brillouin singles    =        -0.0000000000 au

 Total  MP2   correlation energy =                    -0.31630762 au
        MP2         total energy =                  -366.50329550 au
  Entering Z-vector solver.
   1         0           1      0.000178    0.000178
   2         0           1      0.000067    0.000067
   3         0           1      0.000018    0.000018
   4         0           1      0.000005    0.000005
   5         1           0      0.000000    0.000000    Roots Converged
 
 --------------------------------------------------------------
 
                    Orbital Energies (a.u.)
 --------------------------------------------------------------
 
 Alpha MOs
 -- Occupied --
-68.802 -20.559  -6.146  -4.254  -4.253  -4.253  -1.341  -0.762
 -0.652  -0.552  -0.551  -0.478  -0.460
 -- Virtual --
  0.057   0.066   0.081   0.083   0.162   0.173   0.185   0.213
  0.262   0.278   0.283   0.295   0.360   0.368   0.372   0.476
  0.523   0.530   0.577   0.676   0.707   0.788   0.852   1.081
  1.084   1.141   1.286   1.293   1.307   1.425   1.434   1.466
  1.528   1.596   1.629   1.731   1.737   1.844   1.884   1.899
  2.006   2.179   2.355   2.409   2.418   2.805   2.890   2.952
  2.997   3.286   3.444   3.506   3.708   4.238   5.530   5.568
  6.048   6.206  12.296  12.309  12.328  51.578 143.986
 --------------------------------------------------------------
 
          Ground-State Mulliken Net Atomic Charges

     Atom                 Charge (a.u.)
  ----------------------------------------
      1 H                    -0.186787
      2 Si                    0.845735
      3 H                    -0.186792
      4 H                    -0.162934
      5 O                    -0.586672
      6 H                     0.277449
  ----------------------------------------
  Sum of atomic charges =    -0.000000

 -----------------------------------------------------------------
                    Cartesian Multipole Moments
 -----------------------------------------------------------------
    Charge (ESU x 10^10)
                -0.0000
    Dipole Moment (Debye)
         X       0.2764      Y       1.5182      Z       0.0014
       Tot       1.5431
    Quadrupole Moments (Debye-Ang)
        XX     -20.8283     XY      -3.3433     YY     -20.7186
        XZ      -0.0032     YZ       0.0016     ZZ     -22.3505
    Octopole Moments (Debye-Ang^2)
       XXX      -7.7198    XXY       4.6447    XYY      -5.1914
       YYY       0.8749    XXZ       0.0050    XYZ      -0.0020
       YYZ       0.0063    XZZ      -3.0681    YZZ      -1.8392
       ZZZ      -0.0030
    Hexadecapole Moments (Debye-Ang^3)
      XXXX    -109.4762   XXXY     -10.3767   XXYY     -26.7797
      XYYY      -2.8647   YYYY     -47.7068   XXXZ      -0.0090
      XXYZ       0.0033   XYYZ       0.0023   YYYZ       0.0018
      XXZZ     -30.3522   XYZZ      -2.0004   YYZZ     -16.3751
      XZZZ      -0.0049   YZZZ      -0.0004   ZZZZ     -48.1624
 -----------------------------------------------------------------
 DrvMan is completing analytic gradient of the MP2 energy
 MP2 relaxed dipole moment
            1
    1   0.1087486
    2   0.5973003
    3   0.0005509
	Magnitude:	 0.607 au	 1.543 Debye
 MP2 energy read as -366.503296
 Full Analytical Gradient of MP2 Energy (in au.)
             1             2             3             4             5
    1   -0.00005717    0.00162278   -0.00005562   -0.00001117   -0.00183430
    2    0.00002461    0.00045597    0.00002695   -0.00014832   -0.00071261
    3    0.00004073    0.00000437   -0.00004440   -0.00000050    0.00000003
             6
    1    0.00033549
    2    0.00035340
    3   -0.00000022
 Gradient time:  CPU 0.10 s  wall 0.10 s
 Geometry Optimization Parameters
   NAtoms,    NIC,     NZ,  NCons,   NDum,   NFix, NCnnct, MaxDiis
        6      27       0       0       0       0       0       0

 Cartesian Hessian Update
 Hessian Updated using BFGS Update


** GEOMETRY OPTIMIZATION IN DELOCALIZED INTERNAL COORDINATES **
   Searching for a Minimum

   Optimization Cycle:   5

                       Coordinates (Angstroms)
     ATOM                X               Y               Z
      1  H         1.0211397799    0.7422235953    1.1963296924
      2  Si        0.5350660013    0.0250197112   -0.0000320151
      3  H         1.0210161252    0.7450144955   -1.1947837352
      4  H         1.0291174627   -1.3584480355   -0.0016671720
      5  O        -1.1314395230   -0.0856209296   -0.0000846751
      6  H        -1.6286491169    0.7332922546    0.0006799631
   Point Group: c1    Number of degrees of freedom:    12


   Energy is   -366.503295501

 Hessian Updated using BFGS Update

 12 Hessian modes will be used to form the next step
  Hessian Eigenvalues:
     0.029994    0.100194    0.110486    0.110742    0.160000    0.160088
     0.160197    0.290947    0.306134    0.308400    0.475012    0.514920

 Minimum Search - Taking Simple RFO Step
 Searching for Lamda that Minimizes Along All modes
 Value Taken    Lamda =  -0.00001400
 Step Taken.  Stepsize is  0.010149

                             Maximum     Tolerance    Cnvgd?
         Gradient           0.001255      0.000020      NO
         Displacement       0.005808      0.000120      NO
         Energy change     -0.000079      0.000000      NO


 New Cartesian Coordinates Obtained by Inverse Iteration

 Displacement from previous Coordinates is:  0.012265
 ----------------------------------------------------------------
             Standard Nuclear Orientation (Angstroms)
    I     Atom           X                Y                Z
 ----------------------------------------------------------------
    1      H       1.0232148452     0.7422860307     1.1965701587
    2      Si      0.5347291873     0.0254177067    -0.0000361223
    3      H       1.0230919577     0.7450709651    -1.1950192686
    4      H       1.0280470724    -1.3588583466    -0.0016678274
    5      O      -1.1296807494    -0.0836211717    -0.0000878833
    6      H      -1.6331515840     0.7311859071     0.0006830012
 ----------------------------------------------------------------
 Molecular Point Group                 C1    NOp =  1
 Largest Abelian Subgroup              C1    NOp =  1
 Nuclear Repulsion Energy =    64.3954085386 hartrees
 There are       13 alpha and       13 beta electrons
 Applying Cartesian multipole field
    Component          Value
    ---------          -----
     (2,0,0)        1.00000E-11
     (0,2,0)        2.00000E-11
     (0,0,2)       -3.00000E-11
 Nucleus-field energy     =     0.0000000007 hartrees
 Requested basis set is 6-311+G(d,p)
 There are 35 shells and 76 basis functions
 A cutoff of  1.0D-11 yielded    628 shell pairs
 There are      3001 function pairs (      3166 Cartesian)
 Smallest overlap matrix eigenvalue = 2.63E-03
 Guess MOs from SCF MO coefficient file
 Reading MOs from coefficient file
 Reading MOs from coefficient file

 -----------------------------------------------------------------------
  General SCF calculation program by
  Eric Jon Sundstrom, Paul Horn, Yuezhi Mao, Dmitri Zuev, Alec White,
  David Stuck, Shaama M.S., Shane Yost, Joonho Lee, David Small,
  Daniel Levine, Susi Lehtola, Hugh Burton, Evgeny Epifanovsky
 -----------------------------------------------------------------------
 Hartree-Fock
 using 4 threads for integral computing
 -------------------------------------------------------
 OpenMP Integral computing Module                
 Release: version 1.0, May 2013, Q-Chem Inc. Pittsburgh 
 -------------------------------------------------------
 A restricted SCF calculation will be
 performed using DIIS
 SCF converges when DIIS error is below 1.0e-08
 ---------------------------------------
  Cycle       Energy         DIIS error
 ---------------------------------------
    1    -366.1875309574      1.95e-04  
    2    -366.1870844189      2.75e-05  
    3    -366.1870853028      1.34e-05  
    4    -366.1870854457      6.03e-06  
    5    -366.1870854884      1.05e-06  
    6    -366.1870854911      2.08e-07  
    7    -366.1870854912      4.15e-08  
    8    -366.1870854912      8.28e-09  Convergence criterion met
 ---------------------------------------
 SCF time:   CPU 2.17s  wall 0.00s 
 SCF   energy in the final basis set =     -366.1870854912
 Total energy in the final basis set =     -366.1870854912
 
 Components of the MP2 correlation energy:
        aaaa  correlation energy =        -0.0344590832 au
        abab  correlation energy =        -0.2473013221 au
        bbbb  correlation energy =        -0.0344590832 au
        non-Brillouin singles    =        -0.0000000000 au

 Total  MP2   correlation energy =                    -0.31621949 au
        MP2         total energy =                  -366.50330498 au
  Entering Z-vector solver.
   1         0           1      0.000178    0.000178
   2         0           1      0.000067    0.000067
   3         0           1      0.000017    0.000017
   4         0           1      0.000005    0.000005
   5         1           0      0.000000    0.000000    Roots Converged
 
 --------------------------------------------------------------
 
                    Orbital Energies (a.u.)
 --------------------------------------------------------------
 
 Alpha MOs
 -- Occupied --
-68.802 -20.559  -6.146  -4.254  -4.253  -4.253  -1.342  -0.762
 -0.652  -0.553  -0.552  -0.478  -0.460
 -- Virtual --
  0.057   0.066   0.081   0.083   0.162   0.173   0.185   0.213
  0.262   0.278   0.282   0.295   0.360   0.368   0.372   0.476
  0.524   0.530   0.577   0.676   0.708   0.789   0.853   1.081
  1.084   1.142   1.286   1.293   1.307   1.425   1.435   1.467
  1.529   1.596   1.630   1.732   1.737   1.843   1.884   1.899
  2.007   2.179   2.354   2.408   2.418   2.805   2.890   2.952
  2.997   3.286   3.441   3.506   3.712   4.238   5.530   5.568
  6.049   6.207  12.295  12.308  12.329  51.578 143.987
 --------------------------------------------------------------
 
          Ground-State Mulliken Net Atomic Charges

     Atom                 Charge (a.u.)
  ----------------------------------------
      1 H                    -0.186992
      2 Si                    0.845884
      3 H                    -0.186996
      4 H                    -0.163084
      5 O                    -0.587477
      6 H                     0.278665
  ----------------------------------------
  Sum of atomic charges =     0.000000

 -----------------------------------------------------------------
                    Cartesian Multipole Moments
 -----------------------------------------------------------------
    Charge (ESU x 10^10)
                -0.0000
    Dipole Moment (Debye)
         X       0.2486      Y       1.5138      Z       0.0014
       Tot       1.5341
    Quadrupole Moments (Debye-Ang)
        XX     -20.7867     XY      -3.3445     YY     -20.7312
        XZ      -0.0033     YZ       0.0016     ZZ     -22.3554
    Octopole Moments (Debye-Ang^2)
       XXX      -7.9048    XXY       4.6320    XYY      -5.2079
       YYY       0.8317    XXZ       0.0051    XYZ      -0.0020
       YYZ       0.0063    XZZ      -3.0980    YZZ      -1.8583
       ZZZ      -0.0030
    Hexadecapole Moments (Debye-Ang^3)
      XXXX    -109.1596   XXXY     -10.4126   XXYY     -26.7694
      XYYY      -2.8442   YYYY     -47.7397   XXXZ      -0.0092
      XXYZ       0.0033   XYYZ       0.0023   YYYZ       0.0017
      XXZZ     -30.3502   XYZZ      -1.9982   YYZZ     -16.3872
      XZZZ      -0.0050   YZZZ      -0.0005   ZZZZ     -48.2075
 -----------------------------------------------------------------
 DrvMan is completing analytic gradient of the MP2 energy
 MP2 relaxed dipole moment
            1
    1   0.0978243
    2   0.5955644
    3   0.0005458
	Magnitude:	 0.604 au	 1.534 Debye
 MP2 energy read as -366.503305
 Full Analytical Gradient of MP2 Energy (in au.)
             1             2             3             4             5
    1    0.00008248    0.00035390    0.00008233    0.00008501   -0.00074247
    2    0.00016781    0.00013535    0.00016820   -0.00031604   -0.00032878
    3    0.00025170   -0.00000035   -0.00025079   -0.00000059    0.00000040
             6
    1    0.00013875
    2    0.00017346
    3   -0.00000037
 Gradient time:  CPU 0.10 s  wall 0.10 s
 Geometry Optimization Parameters
   NAtoms,    NIC,     NZ,  NCons,   NDum,   NFix, NCnnct, MaxDiis
        6      27       0       0       0       0       0       0

 Cartesian Hessian Update
 Hessian Updated using BFGS Update


** GEOMETRY OPTIMIZATION IN DELOCALIZED INTERNAL COORDINATES **
   Searching for a Minimum

   Optimization Cycle:   6

                       Coordinates (Angstroms)
     ATOM                X               Y               Z
      1  H         1.0232148452    0.7422860307    1.1965701587
      2  Si        0.5347291873    0.0254177067   -0.0000361223
      3  H         1.0230919577    0.7450709651   -1.1950192686
      4  H         1.0280470724   -1.3588583466   -0.0016678274
      5  O        -1.1296807494   -0.0836211717   -0.0000878833
      6  H        -1.6331515840    0.7311859071    0.0006830012
   Point Group: c1    Number of degrees of freedom:    12


   Energy is   -366.503304980

 Hessian Updated using BFGS Update

 11 Hessian modes will be used to form the next step
  Hessian Eigenvalues:
     0.029994    0.075262    0.110700    0.110743    0.158937    0.160194
     0.305675    0.306210    0.310870    0.397372    0.515016

 Minimum Search - Taking Simple RFO Step
 Searching for Lamda that Minimizes Along All modes
 Value Taken    Lamda =  -0.00000454
 Step Taken.  Stepsize is  0.006402

                             Maximum     Tolerance    Cnvgd?
         Gradient           0.000798      0.000020      NO
         Displacement       0.004330      0.000120      NO
         Energy change     -0.000009      0.000000      NO


 New Cartesian Coordinates Obtained by Inverse Iteration

 Displacement from previous Coordinates is:  0.007582
 ----------------------------------------------------------------
             Standard Nuclear Orientation (Angstroms)
    I     Atom           X                Y                Z
 ----------------------------------------------------------------
    1      H       1.0242624937     0.7418074959     1.1961769280
    2      Si      0.5346518430     0.0257430440    -0.0000383222
    3      H       1.0241438812     0.7445894474    -1.1946275708
    4      H       1.0273937983    -1.3582715816    -0.0016653046
    5      O      -1.1283924731    -0.0822708091    -0.0000921421
    6      H      -1.6358088139     0.7298834949     0.0006884700
 ----------------------------------------------------------------
 Molecular Point Group                 C1    NOp =  1
 Largest Abelian Subgroup              C1    NOp =  1
 Nuclear Repulsion Energy =    64.4296097038 hartrees
 There are       13 alpha and       13 beta electrons
 Applying Cartesian multipole field
    Component          Value
    ---------          -----
     (2,0,0)        1.00000E-11
     (0,2,0)        2.00000E-11
     (0,0,2)       -3.00000E-11
 Nucleus-field energy     =     0.0000000007 hartrees
 Requested basis set is 6-311+G(d,p)
 There are 35 shells and 76 basis functions
 A cutoff of  1.0D-11 yielded    628 shell pairs
 There are      3001 function pairs (      3166 Cartesian)
 Smallest overlap matrix eigenvalue = 2.63E-03
 Guess MOs from SCF MO coefficient file
 Reading MOs from coefficient file
 Reading MOs from coefficient file

 -----------------------------------------------------------------------
  General SCF calculation program by
  Eric Jon Sundstrom, Paul Horn, Yuezhi Mao, Dmitri Zuev, Alec White,
  David Stuck, Shaama M.S., Shane Yost, Joonho Lee, David Small,
  Daniel Levine, Susi Lehtola, Hugh Burton, Evgeny Epifanovsky
 -----------------------------------------------------------------------
 Hartree-Fock
 using 4 threads for integral computing
 -------------------------------------------------------
 OpenMP Integral computing Module                
 Release: version 1.0, May 2013, Q-Chem Inc. Pittsburgh 
 -------------------------------------------------------
 A restricted SCF calculation will be
 performed using DIIS
 SCF converges when DIIS error is below 1.0e-08
 ---------------------------------------
  Cycle       Energy         DIIS error
 ---------------------------------------
    1    -366.1881174581      1.16e-04  
    2    -366.1871444753      1.70e-05  
    3    -366.1871448230      8.09e-06  
    4    -366.1871448772      3.71e-06  
    5    -366.1871448931      6.48e-07  
    6    -366.1871448942      1.74e-07  
    7    -366.1871448942      4.44e-08  
    8    -366.1871448942      1.16e-08  
    9    -366.1871448942      2.37e-09  Convergence criterion met
 ---------------------------------------
 SCF time:   CPU 2.36s  wall 0.00s 
 SCF   energy in the final basis set =     -366.1871448942
 Total energy in the final basis set =     -366.1871448942
 
 Components of the MP2 correlation energy:
        aaaa  correlation energy =        -0.0344529950 au
        abab  correlation energy =        -0.2472568388 au
        bbbb  correlation energy =        -0.0344529950 au
        non-Brillouin singles    =        -0.0000000000 au

 Total  MP2   correlation energy =                    -0.31616283 au
        MP2         total energy =                  -366.50330772 au
  Entering Z-vector solver.
   1         0           1      0.000177    0.000177
   2         0           1      0.000067    0.000067
   3         0           1      0.000017    0.000017
   4         0           1      0.000005    0.000005
   5         1           0      0.000000    0.000000    Roots Converged
 
 --------------------------------------------------------------
 
                    Orbital Energies (a.u.)
 --------------------------------------------------------------
 
 Alpha MOs
 -- Occupied --
-68.802 -20.559  -6.146  -4.253  -4.253  -4.252  -1.342  -0.763
 -0.652  -0.553  -0.552  -0.477  -0.460
 -- Virtual --
  0.057   0.066   0.081   0.083   0.162   0.173   0.186   0.213
  0.262   0.278   0.282   0.295   0.360   0.368   0.372   0.476
  0.524   0.530   0.577   0.676   0.708   0.789   0.854   1.081
  1.085   1.142   1.286   1.293   1.308   1.425   1.435   1.467
  1.529   1.595   1.631   1.732   1.737   1.843   1.884   1.900
  2.008   2.180   2.355   2.408   2.418   2.805   2.890   2.953
  2.998   3.286   3.439   3.506   3.715   4.238   5.530   5.568
  6.049   6.207  12.295  12.308  12.331  51.578 143.987
 --------------------------------------------------------------
 
          Ground-State Mulliken Net Atomic Charges

     Atom                 Charge (a.u.)
  ----------------------------------------
      1 H                    -0.187217
      2 Si                    0.846521
      3 H                    -0.187221
      4 H                    -0.163307
      5 O                    -0.588184
      6 H                     0.279408
  ----------------------------------------
  Sum of atomic charges =     0.000000

 -----------------------------------------------------------------
                    Cartesian Multipole Moments
 -----------------------------------------------------------------
    Charge (ESU x 10^10)
                -0.0000
    Dipole Moment (Debye)
         X       0.2325      Y       1.5116      Z       0.0014
       Tot       1.5294
    Quadrupole Moments (Debye-Ang)
        XX     -20.7572     XY      -3.3437     YY     -20.7352
        XZ      -0.0033     YZ       0.0016     ZZ     -22.3544
    Octopole Moments (Debye-Ang^2)
       XXX      -8.0161    XXY       4.6230    XYY      -5.2170
       YYY       0.8036    XXZ       0.0052    XYZ      -0.0020
       YYZ       0.0063    XZZ      -3.1147    YZZ      -1.8705
       ZZZ      -0.0029
    Hexadecapole Moments (Debye-Ang^3)
      XXXX    -108.9269   XXXY     -10.4269   XXYY     -26.7509
      XYYY      -2.8257   YYYY     -47.7175   XXXZ      -0.0094
      XXYZ       0.0034   XYYZ       0.0022   YYYZ       0.0017
      XXZZ     -30.3363   XYZZ      -1.9956   YYZZ     -16.3810
      XZZZ      -0.0051   YZZZ      -0.0005   ZZZZ     -48.1967
 -----------------------------------------------------------------
 DrvMan is completing analytic gradient of the MP2 energy
 MP2 relaxed dipole moment
            1
    1   0.0914619
    2   0.5947062
    3   0.0005512
	Magnitude:	 0.602 au	 1.529 Debye
 MP2 energy read as -366.503308
 Full Analytical Gradient of MP2 Energy (in au.)
             1             2             3             4             5
    1    0.00005925   -0.00019046    0.00005863    0.00005272   -0.00001081
    2    0.00008740   -0.00002396    0.00008703   -0.00012979   -0.00006330
    3    0.00013082   -0.00000166   -0.00012906   -0.00000023    0.00000058
             6
    1    0.00003067
    2    0.00004262
    3   -0.00000045
 Gradient time:  CPU 0.11 s  wall 0.11 s
 Geometry Optimization Parameters
   NAtoms,    NIC,     NZ,  NCons,   NDum,   NFix, NCnnct, MaxDiis
        6      27       0       0       0       0       0       0

 Cartesian Hessian Update
 Hessian Updated using BFGS Update


** GEOMETRY OPTIMIZATION IN DELOCALIZED INTERNAL COORDINATES **
   Searching for a Minimum

   Optimization Cycle:   7

                       Coordinates (Angstroms)
     ATOM                X               Y               Z
      1  H         1.0242624937    0.7418074959    1.1961769280
      2  Si        0.5346518430    0.0257430440   -0.0000383222
      3  H         1.0241438812    0.7445894474   -1.1946275708
      4  H         1.0273937983   -1.3582715816   -0.0016653046
      5  O        -1.1283924731   -0.0822708091   -0.0000921421
      6  H        -1.6358088139    0.7298834949    0.0006884700
   Point Group: c1    Number of degrees of freedom:    12


   Energy is   -366.503307723

 Hessian Updated using BFGS Update

 11 Hessian modes will be used to form the next step
  Hessian Eigenvalues:
     0.029994    0.071014    0.110742    0.110819    0.158687    0.160491
     0.256861    0.306118    0.306921    0.422236    0.514984

 Minimum Search - Taking Simple RFO Step
 Searching for Lamda that Minimizes Along All modes
 Value Taken    Lamda =   0.00000000
 Step Taken.  Stepsize is  0.001567

                             Maximum     Tolerance    Cnvgd?
         Gradient           0.000234      0.000020      NO
         Displacement       0.001379      0.000120      NO
         Energy change     -0.000003      0.000000      NO


 New Cartesian Coordinates Obtained by Inverse Iteration

 Displacement from previous Coordinates is:  0.001826
 ----------------------------------------------------------------
             Standard Nuclear Orientation (Angstroms)
    I     Atom           X                Y                Z
 ----------------------------------------------------------------
    1      H       1.0244235313     0.7415845394     1.1959562759
    2      Si      0.5347957063     0.0258636317    -0.0000386472
    3      H       1.0243098657     0.7443656485    -1.1944098532
    4      H       1.0272207675    -1.3579547511    -0.0016636812
    5      O      -1.1281388793    -0.0819923818    -0.0000952304
    6      H      -1.6363602623     0.7296144048     0.0006931943
 ----------------------------------------------------------------
 Molecular Point Group                 C1    NOp =  1
 Largest Abelian Subgroup              C1    NOp =  1
 Nuclear Repulsion Energy =    64.4356192806 hartrees
 There are       13 alpha and       13 beta electrons
 Applying Cartesian multipole field
    Component          Value
    ---------          -----
     (2,0,0)        1.00000E-11
     (0,2,0)        2.00000E-11
     (0,0,2)       -3.00000E-11
 Nucleus-field energy     =     0.0000000007 hartrees
 Requested basis set is 6-311+G(d,p)
 There are 35 shells and 76 basis functions
 A cutoff of  1.0D-11 yielded    628 shell pairs
 There are      3001 function pairs (      3166 Cartesian)
 Smallest overlap matrix eigenvalue = 2.63E-03
 Guess MOs from SCF MO coefficient file
 Reading MOs from coefficient file
 Reading MOs from coefficient file

 -----------------------------------------------------------------------
  General SCF calculation program by
  Eric Jon Sundstrom, Paul Horn, Yuezhi Mao, Dmitri Zuev, Alec White,
  David Stuck, Shaama M.S., Shane Yost, Joonho Lee, David Small,
  Daniel Levine, Susi Lehtola, Hugh Burton, Evgeny Epifanovsky
 -----------------------------------------------------------------------
 Hartree-Fock
 using 4 threads for integral computing
 -------------------------------------------------------
 OpenMP Integral computing Module                
 Release: version 1.0, May 2013, Q-Chem Inc. Pittsburgh 
 -------------------------------------------------------
 A restricted SCF calculation will be
 performed using DIIS
 SCF converges when DIIS error is below 1.0e-08
 ---------------------------------------
  Cycle       Energy         DIIS error
 ---------------------------------------
    1    -366.1874874533      2.34e-05  
    2    -366.1871525981      3.62e-06  
    3    -366.1871526148      1.15e-06  
    4    -366.1871526169      3.55e-07  
    5    -366.1871526171      1.25e-07  
    6    -366.1871526171      4.27e-08  
    7    -366.1871526171      1.37e-08  
    8    -366.1871526171      2.89e-09  Convergence criterion met
 ---------------------------------------
 SCF time:   CPU 2.19s  wall 0.00s 
 SCF   energy in the final basis set =     -366.1871526171
 Total energy in the final basis set =     -366.1871526171
 
 Components of the MP2 correlation energy:
        aaaa  correlation energy =        -0.0344521893 au
        abab  correlation energy =        -0.2472509742 au
        bbbb  correlation energy =        -0.0344521893 au
        non-Brillouin singles    =        -0.0000000000 au

 Total  MP2   correlation energy =                    -0.31615535 au
        MP2         total energy =                  -366.50330797 au
  Entering Z-vector solver.
   1         0           1      0.000177    0.000177
   2         0           1      0.000067    0.000067
   3         0           1      0.000017    0.000017
   4         0           1      0.000005    0.000005
   5         1           0      0.000000    0.000000    Roots Converged
 
 --------------------------------------------------------------
 
                    Orbital Energies (a.u.)
 --------------------------------------------------------------
 
 Alpha MOs
 -- Occupied --
-68.802 -20.559  -6.146  -4.253  -4.253  -4.252  -1.342  -0.763
 -0.652  -0.553  -0.552  -0.477  -0.460
 -- Virtual --
  0.057   0.066   0.081   0.083   0.162   0.173   0.186   0.213
  0.262   0.278   0.282   0.295   0.360   0.368   0.372   0.476
  0.524   0.530   0.577   0.676   0.708   0.789   0.854   1.081
  1.085   1.143   1.286   1.293   1.308   1.425   1.435   1.467
  1.529   1.595   1.631   1.733   1.738   1.843   1.885   1.900
  2.009   2.181   2.355   2.409   2.419   2.805   2.891   2.953
  2.998   3.286   3.438   3.506   3.715   4.238   5.530   5.568
  6.049   6.207  12.296  12.309  12.331  51.578 143.988
 --------------------------------------------------------------
 
          Ground-State Mulliken Net Atomic Charges

     Atom                 Charge (a.u.)
  ----------------------------------------
      1 H                    -0.187269
      2 Si                    0.846856
      3 H                    -0.187272
      4 H                    -0.163370
      5 O                    -0.588479
      6 H                     0.279534
  ----------------------------------------
  Sum of atomic charges =    -0.000000

 -----------------------------------------------------------------
                    Cartesian Multipole Moments
 -----------------------------------------------------------------
    Charge (ESU x 10^10)
                -0.0000
    Dipole Moment (Debye)
         X       0.2310      Y       1.5116      Z       0.0014
       Tot       1.5291
    Quadrupole Moments (Debye-Ang)
        XX     -20.7502     XY      -3.3431     YY     -20.7349
        XZ      -0.0033     YZ       0.0016     ZZ     -22.3528
    Octopole Moments (Debye-Ang^2)
       XXX      -8.0366    XXY       4.6211    XYY      -5.2182
       YYY       0.7971    XXZ       0.0053    XYZ      -0.0020
       YYZ       0.0064    XZZ      -3.1172    YZZ      -1.8728
       ZZZ      -0.0028
    Hexadecapole Moments (Debye-Ang^3)
      XXXX    -108.8833   XXXY     -10.4292   XXYY     -26.7464
      XYYY      -2.8216   YYYY     -47.7010   XXXZ      -0.0095
      XXYZ       0.0034   XYYZ       0.0022   YYYZ       0.0017
      XXZZ     -30.3323   XYZZ      -1.9949   YYZZ     -16.3756
      XZZZ      -0.0051   YZZZ      -0.0005   ZZZZ     -48.1820
 -----------------------------------------------------------------
 DrvMan is completing analytic gradient of the MP2 energy
 MP2 relaxed dipole moment
            1
    1   0.0908715
    2   0.5947019
    3   0.0005597
	Magnitude:	 0.602 au	 1.529 Debye
 MP2 energy read as -366.503308
 Full Analytical Gradient of MP2 Energy (in au.)
             1             2             3             4             5
    1    0.00001617   -0.00010912    0.00001584    0.00001452    0.00005550
    2    0.00001933   -0.00002142    0.00001921   -0.00001863   -0.00000924
    3    0.00002958   -0.00000085   -0.00002879   -0.00000007    0.00000057
             6
    1    0.00000709
    2    0.00001075
    3   -0.00000045
 Gradient time:  CPU 0.10 s  wall 0.10 s
 Geometry Optimization Parameters
   NAtoms,    NIC,     NZ,  NCons,   NDum,   NFix, NCnnct, MaxDiis
        6      27       0       0       0       0       0       0

 Cartesian Hessian Update
 Hessian Updated using BFGS Update


** GEOMETRY OPTIMIZATION IN DELOCALIZED INTERNAL COORDINATES **
   Searching for a Minimum

   Optimization Cycle:   8

                       Coordinates (Angstroms)
     ATOM                X               Y               Z
      1  H         1.0244235313    0.7415845394    1.1959562759
      2  Si        0.5347957063    0.0258636317   -0.0000386472
      3  H         1.0243098657    0.7443656485   -1.1944098532
      4  H         1.0272207675   -1.3579547511   -0.0016636812
      5  O        -1.1281388793   -0.0819923818   -0.0000952304
      6  H        -1.6363602623    0.7296144048    0.0006931943
   Point Group: c1    Number of degrees of freedom:    12


   Energy is   -366.503307970

 Hessian Updated using BFGS Update

 12 Hessian modes will be used to form the next step
  Hessian Eigenvalues:
     0.029992    0.070987    0.110447    0.110742    0.157217    0.159838
     0.160000    0.213586    0.306126    0.307437    0.420786    0.514144

 Minimum Search - Taking Simple RFO Step
 Searching for Lamda that Minimizes Along All modes
 Value Taken    Lamda =   0.00000000
 Step Taken.  Stepsize is  0.000412

                             Maximum     Tolerance    Cnvgd?
         Gradient           0.000073      0.000020      NO
         Displacement       0.000276      0.000120      NO
         Energy change     -0.000000      0.000000      NO


 New Cartesian Coordinates Obtained by Inverse Iteration

 Displacement from previous Coordinates is:  0.000432
 ----------------------------------------------------------------
             Standard Nuclear Orientation (Angstroms)
    I     Atom           X                Y                Z
 ----------------------------------------------------------------
    1      H       1.0244570564     0.7415440181     1.1959059727
    2      Si      0.5348937611     0.0259098595    -0.0000390757
    3      H       1.0243481179     0.7443238941    -1.1943614590
    4      H       1.0271527328    -1.3578973014    -0.0016629619
    5      O      -1.1281154442    -0.0819520648    -0.0000981313
    6      H      -1.6364854950     0.7295526860     0.0006977135
 ----------------------------------------------------------------
 Molecular Point Group                 C1    NOp =  1
 Largest Abelian Subgroup              C1    NOp =  1
 Nuclear Repulsion Energy =    64.4348502121 hartrees
 There are       13 alpha and       13 beta electrons
 Applying Cartesian multipole field
    Component          Value
    ---------          -----
     (2,0,0)        1.00000E-11
     (0,2,0)        2.00000E-11
     (0,0,2)       -3.00000E-11
 Nucleus-field energy     =     0.0000000007 hartrees
 Requested basis set is 6-311+G(d,p)
 There are 35 shells and 76 basis functions
 A cutoff of  1.0D-11 yielded    628 shell pairs
 There are      3001 function pairs (      3166 Cartesian)
 Smallest overlap matrix eigenvalue = 2.63E-03
 Guess MOs from SCF MO coefficient file
 Reading MOs from coefficient file
 Reading MOs from coefficient file

 -----------------------------------------------------------------------
  General SCF calculation program by
  Eric Jon Sundstrom, Paul Horn, Yuezhi Mao, Dmitri Zuev, Alec White,
  David Stuck, Shaama M.S., Shane Yost, Joonho Lee, David Small,
  Daniel Levine, Susi Lehtola, Hugh Burton, Evgeny Epifanovsky
 -----------------------------------------------------------------------
 Hartree-Fock
 using 4 threads for integral computing
 -------------------------------------------------------
 OpenMP Integral computing Module                
 Release: version 1.0, May 2013, Q-Chem Inc. Pittsburgh 
 -------------------------------------------------------
 A restricted SCF calculation will be
 performed using DIIS
 SCF converges when DIIS error is below 1.0e-08
 ---------------------------------------
  Cycle       Energy         DIIS error
 ---------------------------------------
    1    -366.1872038469      8.52e-06  
    2    -366.1871517354      1.02e-06  
    3    -366.1871517365      5.05e-07  
    4    -366.1871517366      1.75e-07  
    5    -366.1871517366      3.83e-08  
    6    -366.1871517366      9.55e-09  Convergence criterion met
 ---------------------------------------
 SCF time:   CPU 1.64s  wall 0.00s 
 SCF   energy in the final basis set =     -366.1871517366
 Total energy in the final basis set =     -366.1871517366
 
 Components of the MP2 correlation energy:
        aaaa  correlation energy =        -0.0344522630 au
        abab  correlation energy =        -0.2472517243 au
        bbbb  correlation energy =        -0.0344522630 au
        non-Brillouin singles    =        -0.0000000000 au

 Total  MP2   correlation energy =                    -0.31615625 au
        MP2         total energy =                  -366.50330799 au
  Entering Z-vector solver.
   1         0           1      0.000177    0.000177
   2         0           1      0.000067    0.000067
   3         0           1      0.000017    0.000017
[...]
 ----------------------------------------------------------------
             Standard Nuclear Orientation (Angstroms)
    I     Atom           X                Y                Z
 ----------------------------------------------------------------
    1      H       1.0224044749     0.7291228506     1.1952595664
    2      Si      0.5385719577     0.0084653218    -0.0000010116
    3      H       1.0223504385     0.7295779930    -1.1950094403
    4      H       1.0417927462    -1.3713942935    -0.0002672196
    5      O      -1.1235292895    -0.1125853254     0.0000041079
    6      H      -1.6383207508     0.6948615482    -0.0000016073
 ----------------------------------------------------------------
 Nuclear Repulsion Energy =    64.4348502121 hartrees
 There are       13 alpha and       13 beta electrons
 old dipole drv.
            1           2           3           4           5           6
    1  -0.3227237  -0.0145141  -0.0214068   1.9412440   0.0128487  -0.0000036
    2   0.0070794  -0.3050683  -0.0291988   0.0007265   1.2923979   0.0000084
    3  -0.0102105  -0.0294101  -0.3358852  -0.0000277  -0.0000066   1.3478960
            7           8           9          10          11          12
    1  -0.3227175  -0.0145250   0.0213882  -0.2598004   0.0174284  -0.0000107
    2   0.0070883  -0.3050846   0.0291819  -0.0133511  -0.3045969  -0.0000525
    3   0.0102327   0.0294237  -0.3358531  -0.0000479  -0.0000071  -0.2680425
           13          14          15          16          17          18
    1  -1.4001758  -0.0001857  -0.0000003   0.3641726  -0.0010915   0.0000229
    2   0.0012038  -0.5856729   0.0000193  -0.0027250   0.2079484  -0.0000240
    3  -0.0000038   0.0000022  -0.7918749   0.0000008  -0.0000022   0.3836325
 New transposed dipole drv.
            1           2           3
    1  -0.3227237   0.0070794  -0.0102105
    2  -0.0145141  -0.3050683  -0.0294101
    3  -0.0214068  -0.0291988  -0.3358852
    4   1.9412440   0.0007265  -0.0000277
    5   0.0128487   1.2923979  -0.0000066
    6  -0.0000036   0.0000084   1.3478960
    7  -0.3227175   0.0070883   0.0102327
    8  -0.0145250  -0.3050846   0.0294237
    9   0.0213882   0.0291819  -0.3358531
   10  -0.2598004  -0.0133511  -0.0000479
   11   0.0174284  -0.3045969  -0.0000071
   12  -0.0000107  -0.0000525  -0.2680425
   13  -1.4001758   0.0012038  -0.0000038
   14  -0.0001857  -0.5856729   0.0000022
   15  -0.0000003   0.0000193  -0.7918749
   16   0.3641726  -0.0027250   0.0000008
   17  -0.0010915   0.2079484  -0.0000022
   18   0.0000229  -0.0000240   0.3836325
FINAL TENSOR RESULT:
Order 2, Length 18
    Atom      X          Y          Z
     1 Order 1, Length 18
    Atom      X          Y          Z
     1    4.389034974149240e-02   2.794051514463910e-02   4.453884868962733e-02
     2   -4.529144528463405e-02  -2.084454411057188e-02  -3.689495099160083e-02
     3    5.653498273282483e-03   6.951362152278589e-04   2.816835432563202e-03
     4    4.808597462103128e-03   1.996054952992524e-03   2.638680214289073e-03
     5   -1.096759018176519e-02  -8.657588883395777e-03  -1.371477775909093e-02
     6    1.905924829715845e-03  -1.129792622875338e-03   6.131215408826697e-04

Order 1, Length 18
    Atom      X          Y          Z
     1    2.794051514463910e-02   6.461210691657719e-02   6.806299470799351e-02
     2   -2.271720418961637e-02  -7.074283920421386e-02  -6.019998432334020e-02
     3    6.962530375021083e-04   6.423717447769720e-03   5.718881922126920e-03
     4   -2.727232748496508e-03  -5.105243978213788e-03  -1.196855519112264e-02
     5   -2.302089224088846e-03   5.333997884174218e-03  -1.203091323809827e-03
     6   -8.895721119502966e-04  -5.218589245918317e-04  -4.102333710373879e-04

Order 1, Length 18
    Atom      X          Y          Z
     1    4.453884868962733e-02   6.806299470799351e-02   1.380161982188379e-01
     2   -3.941858166276137e-02  -6.061580370673174e-02  -1.345548952031459e-01
     3   -2.817478596926117e-03  -5.713283191288133e-03  -9.871335535286380e-03
     4   -4.570198153104922e-04  -9.323781377763039e-04   2.270570664426405e-03
     5   -2.066646689504978e-03  -6.648433550708095e-04   4.800863409361800e-03
     6    2.209061919116956e-04  -1.367924105507719e-04  -6.622283353203220e-04


     2 Order 1, Length 18
    Atom      X          Y          Z
     1   -4.529144528463405e-02  -2.271720418961637e-02  -3.941858166276137e-02
     2    4.156253625462402e-01  -4.424387876136143e-03   3.160241641831045e-06
     3   -4.528855659987278e-02  -2.272948041836098e-02   3.940463481809876e-02
     4   -4.320729249169128e-02   5.283399853218752e-02   8.960131875029477e-06
     5   -2.660052269710086e-01   8.926931711564829e-03   5.105935077785591e-07
     6   -1.583647667876206e-02  -1.189154557002822e-02   3.038148164636520e-07

Order 1, Length 18
    Atom      X          Y          Z
     1   -2.084454411057188e-02  -7.074283920421386e-02  -6.061580370673174e-02
     2   -4.424387876136143e-03   3.672989046842278e-01   2.757586111059877e-06
     3   -2.085552911105095e-02  -7.078825862687563e-02   6.064126029854926e-02
     4    4.675395555965786e-02  -1.780484284164748e-01  -2.746049899079708e-05
     5   -2.081958905257512e-02  -4.666545569430845e-02   1.121739092403904e-06
     6    2.018900229507918e-02  -1.054075308695435e-03  -1.409747334095780e-06

Order 1, Length 18
    Atom      X          Y          Z
     1   -3.689495099160083e-02  -6.019998432334020e-02  -1.345548952031459e-01
     2    3.160241641831045e-06   2.757586111059877e-06   3.367291852542431e-01
     3    3.688417405507693e-02   6.022513049427580e-02  -1.345114769055055e-01
     4    9.057887726534109e-06  -2.800326813211373e-05  -3.213692444131646e-02
     5    1.118858025163609e-06   6.636757849488413e-08  -3.726343319077076e-02
     6   -6.979566101941284e-07   3.244115644939738e-08   1.735958434267160e-03


     3 Order 1, Length 18
    Atom      X          Y          Z
     1    5.653498273282483e-03   6.962530375021083e-04  -2.817478596926117e-03
     2   -4.528855659987278e-02  -2.085552911105095e-02   3.688417405507693e-02
     3    4.388580036423791e-02   2.795466360896710e-02  -4.452466279111397e-02
     4    4.808873424087486e-03   1.997212981702448e-03  -2.638665187893350e-03
     5   -1.096713019840817e-02  -8.663245219483960e-03   1.371014398785627e-02
     6    1.907654472556546e-03  -1.129574281914877e-03  -6.119292206427920e-04

Order 1, Length 18
    Atom      X          Y          Z
     1    6.951362152278589e-04   6.423717447769720e-03  -5.713283191288133e-03
     2   -2.272948041836098e-02  -7.078825862687563e-02   6.022513049427580e-02
     3    2.795466360896710e-02   6.466346557475823e-02  -6.809167295036278e-02
     4   -2.726824529505053e-03  -5.109732841571119e-03   1.196521542821446e-02
     5   -2.302877620206925e-03   5.332438327446635e-03   1.203785864839165e-03
     6   -8.895449718464652e-04  -5.217494948163916e-04   4.102155059890808e-04

Order 1, Length 18
    Atom      X          Y          Z
     1    2.816835432563202e-03   5.718881922126920e-03  -9.871335535286380e-03
     2    3.940463481809876e-02   6.064126029854926e-02  -1.345114769055055e-01
     3   -4.452466279111397e-02  -6.809167295036278e-02   1.379688667051976e-01
     4    4.559007983829728e-04   9.294075807067797e-04   2.275090409391454e-03
     5    2.067235764922393e-03   6.672160602836058e-04   4.799372060216994e-03
     6   -2.212136529911822e-04   1.350138883452061e-04  -6.608936460686647e-04


     4 Order 1, Length 18
    Atom      X          Y          Z
     1    4.808597462103128e-03  -2.727232748496508e-03  -4.570198153104922e-04
     2   -4.320729249169128e-02   4.675395555965786e-02   9.057887726534109e-06
     3    4.808873424087486e-03  -2.726824529505053e-03   4.559007983829728e-04
     4    4.693121076151285e-02  -5.736796725067472e-02  -1.041568096601292e-05
     5   -1.080315191438239e-02   1.598143865962867e-02   3.200622674340564e-06
     6   -2.536553074592221e-03   8.707549616123118e-05  -1.756739452599913e-07

Order 1, Length 18
    Atom      X          Y          Z
     1    1.996054952992524e-03  -5.105243978213788e-03  -9.323781377763039e-04
     2    5.283399853218752e-02  -1.780484284164748e-01  -2.800326813211373e-05
     3    1.997212981702448e-03  -5.109732841571119e-03   9.294075807067797e-04
     4   -5.736796725067472e-02   1.846158240857637e-01   3.090053807157316e-05
     5    1.292757210153496e-03   2.618699297493353e-03   9.040323593619346e-08
     6   -7.522507979515168e-04   1.028415423323433e-03  -2.535814416828545e-07

Order 1, Length 18
    Atom      X          Y          Z
     1    2.638680214289073e-03  -1.196855519112264e-02   2.270570664426405e-03
     2    8.960131875029477e-06  -2.746049899079708e-05  -3.213692444131646e-02
     3   -2.638665187893350e-03   1.196521542821446e-02   2.275090409391454e-03
     4   -1.041568096601292e-05   3.090053807157316e-05   2.331462913528084e-02
     5    1.382573328619689e-06   2.199901391470186e-07   3.277956379704333e-03
     6   -2.165528407375240e-07   0.000000000000000e+00   9.994483013992077e-04


     5 Order 1, Length 18
    Atom      X          Y          Z
     1   -1.096759018176519e-02  -2.302089224088846e-03  -2.066646689504978e-03
     2   -2.660052269710086e-01  -2.081958905257512e-02   1.118858025163609e-06
     3   -1.096713019840817e-02  -2.302877620206925e-03   2.067235764922393e-03
     4   -1.080315191438239e-02   1.292757210153496e-03   1.382573328619689e-06
     5    4.732647214269576e-01  -2.406074097053091e-01   1.915915906824125e-06
     6   -1.745199506283803e-01   2.647411290920936e-01  -3.505333238801640e-06

Order 1, Length 18
    Atom      X          Y          Z
     1   -8.657588883395777e-03   5.333997884174218e-03  -6.648433550708095e-04
     2    8.926931711564829e-03  -4.666545569430845e-02   6.636757849488413e-08
     3   -8.663245219483960e-03   5.332438327446635e-03   6.672160602836058e-04
     4    1.598143865962867e-02   2.618699297493353e-03   2.199901391470186e-07
     5   -2.406074097053091e-01   4.287923885880595e-01  -5.642676170652069e-06
     6    2.330207758443095e-01  -3.954107842858156e-01   4.847819254814070e-06

Order 1, Length 18
    Atom      X          Y          Z
     1   -1.371477775909093e-02  -1.203091323809827e-03   4.800863409361800e-03
     2    5.105935077785591e-07   1.121739092403904e-06  -3.726343319077076e-02
     3    1.371014398785627e-02   1.203785864839165e-03   4.799372060216994e-03
     4    3.200622674340564e-06   9.040323593619346e-08   3.277956379704333e-03
     5    1.915915906824125e-06  -5.642676170652069e-06   2.727044961934687e-02
     6   -1.191562741338349e-06   3.736697095807842e-06  -2.880147306457533e-03


     6 Order 1, Length 18
    Atom      X          Y          Z
     1    1.905924829715845e-03  -8.895721119502966e-04   2.209061919116956e-04
     2   -1.583647667876206e-02   2.018900229507918e-02  -6.979566101941284e-07
     3    1.907654472556546e-03  -8.895449718464652e-04  -2.212136529911822e-04
     4   -2.536553074592221e-03  -7.522507979515168e-04  -2.165528407375240e-07
     5   -1.745199506283803e-01   2.330207758443095e-01  -1.191562741338349e-06
     6    1.890802069242649e-01  -2.506786511806814e-01   2.036733477707040e-06

Order 1, Length 18
    Atom      X          Y          Z
     1   -1.129792622875338e-03  -5.218589245918317e-04  -1.367924105507719e-04
     2   -1.189154557002822e-02  -1.054075308695435e-03   3.244115644939738e-08
     3   -1.129574281914877e-03  -5.217494948163916e-04   1.350138883452061e-04
     4    8.707549616123118e-05   1.028415423323433e-03   0.000000000000000e+00
     5    2.647411290920936e-01  -3.954107842858156e-01   3.736697095807842e-06
     6   -2.506786511806814e-01   3.964796270274809e-01  -3.167008909971398e-06

Order 1, Length 18
    Atom      X          Y          Z
     1    6.131215408826697e-04  -4.102333710373879e-04  -6.622283353203220e-04
     2    3.038148164636520e-07  -1.409747334095780e-06   1.735958434267160e-03
     3   -6.119292206427920e-04   4.102155059890808e-04  -6.608936460686647e-04
     4   -1.756739452599913e-07  -2.535814416828545e-07   9.994483013992077e-04
     5   -3.505333238801640e-06   4.847819254814070e-06  -2.880147306457533e-03
     6    2.036733477707040e-06  -3.167008909971398e-06   1.464820660033922e-03




 # Finishing finite difference calculation for IDERIV #
 ######################################################
 ######################################################
 Requested basis set is 6-311+G(d,p)
 There are 35 shells and 76 basis functions
 **********************************************************************
 **                                                                  **
 **                       VIBRATIONAL ANALYSIS                       **
 **                       --------------------                       **
 **                                                                  **
 **        VIBRATIONAL FREQUENCIES (CM**-1) AND NORMAL MODES         **
 **     FORCE CONSTANTS (mDYN/ANGSTROM) AND REDUCED MASSES (AMU)     **
 **                  INFRARED INTENSITIES (KM/MOL)                   **
 **                                                                  **
 **********************************************************************
 

 Mode:                 1                      2                      3
 Frequency:       208.43                 678.15                 741.06
 Force Cnst:      0.0274                 0.2863                 0.3853
 Red. Mass:       1.0711                 1.0565                 1.1907
 IR Active:          YES                    YES                    YES
 IR Intens:      135.076                 97.164                 86.667
 Raman Active:       YES                    YES                    YES
               X      Y      Z        X      Y      Z        X      Y      Z
 H         -0.112  0.173 -0.055   -0.288  0.163  0.001    0.664  0.007 -0.217
 Si        -0.000 -0.000  0.000    0.001 -0.034  0.000   -0.000  0.000  0.060
 H          0.111 -0.173 -0.055   -0.288  0.163 -0.001   -0.664 -0.007 -0.217
 H          0.000 -0.000  0.197    0.532  0.164 -0.000   -0.000 -0.000 -0.100
 O          0.000 -0.000 -0.065   -0.035  0.003 -0.000    0.000  0.000 -0.076
 H          0.000  0.000  0.931    0.559  0.395  0.000   -0.000 -0.000  0.068
 TransDip   0.000 -0.000  0.372    0.291 -0.122  0.000   -0.000  0.000  0.298

 Mode:                 4                      5                      6
 Frequency:       834.57                 884.12                 998.90
 Force Cnst:      0.9041                 0.9376                 0.6197
 Red. Mass:       2.2032                 2.0359                 1.0541
 IR Active:          YES                    YES                    YES
 IR Intens:      202.972                 20.940                103.149
 Raman Active:       YES                    YES                    YES
               X      Y      Z        X      Y      Z        X      Y      Z
 H         -0.323  0.057  0.029    0.020  0.006 -0.035    0.162 -0.371  0.137
 Si        -0.097 -0.059 -0.000   -0.117  0.030 -0.000    0.000 -0.000 -0.041
 H         -0.323  0.056 -0.029    0.020  0.006  0.035   -0.162  0.371  0.137
 H          0.514  0.161 -0.000   -0.600 -0.147  0.000   -0.000 -0.000  0.795
 O          0.210  0.111  0.000    0.196 -0.061  0.000    0.000  0.000  0.003
 H         -0.521 -0.391 -0.000    0.698  0.267 -0.000   -0.000 -0.000  0.028
 TransDip  -0.403 -0.214 -0.000   -0.075  0.126  0.000    0.000 -0.000 -0.325

 Mode:                 7                      8                      9
 Frequency:      1021.22                1042.88                2304.45
 Force Cnst:      0.6653                 0.6976                 3.2884
 Red. Mass:       1.0827                 1.0887                 1.0510
 IR Active:          YES                    YES                    YES
 IR Intens:      149.328                254.619                193.778
 Raman Active:       YES                    YES                    YES
               X      Y      Z        X      Y      Z        X      Y      Z
 H         -0.166  0.553 -0.268    0.531  0.173 -0.335    0.231  0.352  0.568
 Si         0.033 -0.040  0.000   -0.052 -0.016 -0.000   -0.000  0.000 -0.040
 H         -0.166  0.552  0.268    0.531  0.173  0.335   -0.231 -0.352  0.567
 H         -0.377 -0.170 -0.000    0.357  0.136  0.000   -0.000  0.000 -0.019
 O         -0.006  0.014 -0.000    0.000 -0.004 -0.000    0.000  0.000 -0.000
 H         -0.117 -0.061 -0.000    0.031  0.019  0.000   -0.000 -0.000 -0.004
 TransDip   0.218 -0.325  0.000   -0.493 -0.133  0.000   -0.000  0.000 -0.446

 Mode:                10                     11                     12
 Frequency:      2312.45                2359.17                3963.74
 Force Cnst:      3.2436                 3.4128                 9.8789
 Red. Mass:       1.0295                 1.0407                 1.0672
 IR Active:          YES                    YES                    YES
 IR Intens:      107.373                109.395                 95.722
 Raman Active:       YES                    YES                    YES
               X      Y      Z        X      Y      Z        X      Y      Z
 H          0.226  0.336  0.579    0.000 -0.013  0.001   -0.004 -0.001 -0.001
 Si        -0.016 -0.024 -0.000    0.012 -0.033 -0.000   -0.001 -0.001  0.000
 H          0.226  0.336 -0.579    0.000 -0.013 -0.001   -0.004 -0.001  0.001
 H         -0.000 -0.010 -0.000   -0.338  0.940  0.000    0.000  0.003  0.000
 O         -0.001 -0.000  0.000    0.000  0.000 -0.000    0.036 -0.051  0.000
 H         -0.003  0.002 -0.000    0.002 -0.003 -0.000   -0.553  0.831 -0.000
 TransDip  -0.207 -0.259 -0.000    0.124 -0.311 -0.000   -0.244  0.197 -0.000

 STANDARD THERMODYNAMIC QUANTITIES AT   298.15 K  AND     1.00 ATM

   This Molecule has  0 Imaginary Frequencies
   Zero point vibrational energy:       24.802 kcal/mol

   Atom    1 Element H  Has Mass    1.00783
   Atom    2 Element Si Has Mass   27.97693
   Atom    3 Element H  Has Mass    1.00783
   Atom    4 Element H  Has Mass    1.00783
   Atom    5 Element O  Has Mass   15.99491
   Atom    6 Element H  Has Mass    1.00783
   Molecular Mass:    48.003160 amu
   Principal axes and moments of inertia in amu*Bohr^2:
                             1           2           3
    Eigenvalues --       23.17604   132.42485   135.03826
          X               0.99942    -0.03412     0.00000
          Y               0.03412     0.99942     0.00000
          Z              -0.00000    -0.00000     1.00000
   Rotational Symmetry Number is   1
   The Molecule is an Asymmetric Top
   Translational Enthalpy:        0.889 kcal/mol
   Rotational Enthalpy:           0.889 kcal/mol
   Vibrational Enthalpy:         25.427 kcal/mol
   gas constant (RT):             0.592 kcal/mol
   Translational Entropy:        37.530  cal/mol.K
   Rotational Entropy:           20.655  cal/mol.K
   Vibrational Entropy:           3.241  cal/mol.K

   Total Enthalpy:               27.796 kcal/mol
   Total Entropy:                61.425  cal/mol.K
Archival summary:
1\1\mm2.localdomain\FREQ\MP2\6-311+G**\i114\xuedong\WedMay1510:19:232019WedMay1510:19:232019\0\\#,FREQ,MP2,6-311+G**,\\0,1\Si\H,1,1.46876\H,1,1.47719,2,110.259\H,1,1.47719,2,110.259,3,119.176,0\O,1,1.6665,2,105.871,3,-120.412,0\H,5,0.957591,1,118.354,2,-179.989,0\\HF=-366.187152\MP2=-366.503308\\@

 Total job time:  122.24s(wall), 354.38s(cpu) 
 Wed May 15 10:19:23 2019

        *************************************************************
        *                                                           *
        *  Thank you very much for using Q-Chem.  Have a nice day.  *
        *                                                           *
        *************************************************************


