
Running Job 1 of 2 20.freq.qcinp
qchem 20.freq.qcinp_15519.0 /scratch/xuedong/qchem15519/ 1
/home/qwang/software/qchem5.1/exe/qcprog.exe_s 20.freq.qcinp_15519.0 /scratch/xuedong/qchem15519/
Check license passed

                  Welcome to Q-Chem
     A Quantum Leap Into The Future Of Chemistry


 Q-Chem 5.1, Q-Chem, Inc., Pleasanton, CA (2018)

 Yihan Shao,  Zhengting Gan,  E. Epifanovsky,  A. T. B. Gilbert,  M. Wormit,  
 J. Kussmann,  A. W. Lange,  A. Behn,  Jia Deng,  Xintian Feng,  D. Ghosh,  
 M. Goldey,  P. R. Horn,  L. D. Jacobson,  I. Kaliman,  T. Kus,  A. Landau,  
 Jie Liu,  E. I. Proynov,  R. M. Richard,  R. P. Steele,  E. J. Sundstrom,  
 H. L. Woodcock III,  P. M. Zimmerman,  D. Zuev,  B. Albrecht,  E. Alguire,  
 S. A. Baeppler,  D. Barton,  Z. Benda,  Y. A. Bernard,  E. J. Berquist,  
 K. B. Bravaya,  H. Burton,  D. Casanova,  Chun-Min Chang,  Yunqing Chen,  
 A. Chien,  K. D. Closser,  M. P. Coons,  S. Coriani,  S. Dasgupta,  
 A. L. Dempwolff,  M. Diedenhofen,  Hainam Do,  R. G. Edgar,  Po-Tung Fang,  
 S. Faraji,  S. Fatehi,  Qingguo Feng,  K. D. Fenk,  J. Fosso-Tande,  
 Qinghui Ge,  A. Ghysels,  G. Gidofalvi,  J. Gomes,  J. Gonthier,  A. Gunina,  
 D. Hait,  M. W. D. Hanson-Heine,  P. H. P. Harbach,  A. W. Hauser,  
 J. E. Herr,  E. G. Hohenstein,  Z. C. Holden,  Kerwin Hui,  B. C. Huynh,  
 T.-C. Jagau,  Hyunjun Ji,  B. Kaduk,  K. Khistyaev,  Jaehoon Kim,  
 P. Klunzinger,  K. Koh,  D. Kosenkov,  L. Koulias,  T. Kowalczyk,  
 C. M. Krauter,  A. Kunitsa,  Ka Un Lao,  A. Laurent,  K. V. Lawler,  
 Joonho Lee,  D. Lefrancois,  S. Lehtola,  D. S. Levine,  Yi-Pei Li,  
 You-Sheng Lin,  Fenglai Liu,  E. Livshits,  A. Luenser,  P. Manohar,  
 E. Mansoor,  S. F. Manzer,  Shan-Ping Mao,  Yuezhi Mao,  N. Mardirossian,  
 A. V. Marenich,  T. Markovich,  L. A. Martinez-Martinez,  S. A. Maurer,  
 N. J. Mayhall,  S. C. McKenzie,  J.-M. Mewes,  A. F. Morrison,  
 J. W. Mullinax,  K. Nanda,  T. S. Nguyen-Beck,  R. Olivares-Amaya,  
 J. A. Parkhill,  T. M. Perrine,  F. Plasser,  P. Pokhilko,  S. Prager,  
 A. Prociuk,  E. Ramos,  D. R. Rehn,  F. Rob,  M. Schneider,  N. Sergueev,  
 S. M. Sharada,  S. Sharma,  D. W. Small,  T. Stauch,  T. Stein,  
 Yu-Chuan Su,  A. J. W. Thom,  A. Tkatchenko,  T. Tsuchimochi,  N. M. Tubman,  
 L. Vogt,  M. L. Vidal,  O. Vydrov,  M. A. Watson,  J. Wenzel,  
 M. de Wergifosse,  T. A. Wesolowski,  A. White,  J. Witte,  A. Yamada,  
 Jun Yang,  K. Yao,  S. Yeganeh,  S. R. Yost,  Zhi-Qiang You,  A. Zech,  
 Igor Ying Zhang,  Xing Zhang,  Yan Zhao,  Ying Zhu,  B. R. Brooks,  
 G. K. L. Chan,  C. J. Cramer,  M. S. Gordon,  W. J. Hehre,  A. Klamt,  
 M. W. Schmidt,  C. D. Sherrill,  D. G. Truhlar,  A. Aspuru-Guzik,  R. Baer,  
 A. T. Bell,  N. A. Besley,  Jeng-Da Chai,  R. A. DiStasio Jr.,  A. Dreuw,  
 B. D. Dunietz,  T. R. Furlani,  Chao-Ping Hsu,  Yousung Jung,  Jing Kong,  
 D. S. Lambrecht,  WanZhen Liang,  C. Ochsenfeld,  V. A. Rassolov,  
 L. V. Slipchenko,  J. E. Subotnik,  T. Van Voorhis,  J. M. Herbert,  
 A. I. Krylov,  P. M. W. Gill,  M. Head-Gordon

 Contributors to earlier versions of Q-Chem not listed above: 
 R. D. Adamson,  B. Austin,  J. Baker,  G. J. O. Beran,  K. Brandhorst,  
 S. T. Brown,  E. F. C. Byrd,  A. K. Chakraborty,  C.-L. Cheng,  
 Siu Hung Chien,  D. M. Chipman,  D. L. Crittenden,  H. Dachsel,  
 R. J. Doerksen,  A. D. Dutoi,  L. Fusti-Molnar,  W. A. Goddard III,  
 A. Golubeva-Zadorozhnaya,  S. R. Gwaltney,  G. Hawkins,  A. Heyden,  
 S. Hirata,  G. Kedziora,  F. J. Keil,  C. Kelley,  Jihan Kim,  R. A. King,  
 R. Z. Khaliullin,  P. P. Korambath,  W. Kurlancheek,  A. M. Lee,  M. S. Lee,  
 S. V. Levchenko,  Ching Yeh Lin,  D. Liotard,  R. C. Lochan,  I. Lotan,  
 P. E. Maslen,  N. Nair,  D. P. O'Neill,  D. Neuhauser,  E. Neuscamman,  
 C. M. Oana,  R. Olson,  B. Peters,  R. Peverati,  P. A. Pieniazek,  
 Y. M. Rhee,  J. Ritchie,  M. A. Rohrdanz,  E. Rosta,  N. J. Russ,  
 H. F. Schaefer III,  N. E. Schultz,  N. Shenvi,  A. C. Simmonett,  A. Sodt,  
 D. Stuck,  K. S. Thanthiriwatte,  V. Vanovschi,  Tao Wang,  A. Warshel,  
 C. F. Williams,  Q. Wu,  X. Xu,  W. Zhang

 Please cite Q-Chem as follows:
 Y. Shao et al., Mol. Phys. 113, 184-215 (2015)
 DOI: 10.1080/00268976.2014.952696

 Q-Chem 5.1.0 for Intel X86 EM64T Linux

 Parts of Q-Chem use Armadillo 8.300.2 (Tropical Shenanigans).
 http://arma.sourceforge.net/

 Q-Chem begins on Wed May 15 09:26:43 2019  

Host: 
0

     Scratch files written to /scratch/xuedong/qchem15519//
 May118 |scratch|qcdevops|jenkins|workspace|build_RNUM 6581   
Processing $rem in /home/qwang/software/qchem5.1/config/preferences.
 MEM_TOTAL  2000 
Core orbitals will be frozen

Checking the input file for inconsistencies... 	...done.

--------------------------------------------------------------
User input:
--------------------------------------------------------------
$molecule
0 1
Si        0.003  -0.002  -0.004
C       -0.606  -0.819  -1.418
H       -0.432  -0.608   1.056
H       -0.432   1.219   0.001
C        1.746   0.013   0.022
H       -0.253  -0.308  -2.315
H       -1.696  -0.813  -1.407
H       -0.253  -1.851  -1.424
H        2.098   0.529   0.916
H        2.120  -1.012   0.029
H        2.120   0.531  -0.862
$end

$rem
JOBTYPE  =  opt
METHOD  =  MP2
BASIS  =  6-311G+(d,p)
SCF_MAX_CYCLES  =  200
GEOM_OPT_MAX_CYCLES  =  300
GEOM_OPT_TOL_DISPLACEMENT = 120
GEOM_OPT_TOL_ENERGY = 10
GEOM_OPT_TOL_GRADIENT = 20
$end
--------------------------------------------------------------
 ----------------------------------------------------------------
             Standard Nuclear Orientation (Angstroms)
    I     Atom           X                Y                Z
 ----------------------------------------------------------------
    1      Si     -0.0001797111    -0.5118997046     0.0000095932
    2      C      -1.4401677824     0.4700373374    -0.0000029533
    3      H      -0.0005456204    -1.2648636020    -1.0550289063
    4      H      -0.0002932358    -1.2653718824     1.0546994360
    5      C       1.4404099232     0.4697578237     0.0000619102
    6      H      -1.4527187159     1.0992344864     0.8912278932
    7      H      -2.3229860815    -0.1694067383    -0.0003561775
    8      H      -1.4529340570     1.0996668525    -0.8905492440
    9      H       2.3237040023    -0.1699197133    -0.0004054796
   10      H       1.4533107391     1.0994589306    -0.8909263529
   11      H       1.4535260802     1.0990265645     0.8908507843
 ----------------------------------------------------------------
 Molecular Point Group                 C1    NOp =  1
 Largest Abelian Subgroup              C1    NOp =  1
 Nuclear Repulsion Energy =   121.8195280180 hartrees
 There are       17 alpha and       17 beta electrons
 Requested basis set is 6-311+G(d,p)
 There are 57 shells and 122 basis functions

 Total QAlloc Memory Limit   2000 MB
 Mega-Array Size       188 MB
 MEM_STATIC part       192 MB
 A cutoff of  1.0D-11 yielded   1626 shell pairs
 There are      7561 function pairs (      7948 Cartesian)
 
 -------------------------------------------------------
 OpenMP Integral Computing Module                       
 Release: version 1.0, May 2013, Q-Chem Inc. Pittsburgh 
 -------------------------------------------------------
 Integral Job Info:
 Integral job number is                      11
 Integral operator is                         1
 short-range coefficients                     0
 long-range coefficients              100000000
 Omega coefficients                           0
 if combine SR and LR in K                    0
 Integral screening is                        0
 Integral computing path is                   2
 max size of driver memory is            800000
 size of driver memory is                593474
 size of scratch memory is              4204008
 max col of scratch BK array               1296
 max len of scratch array in speh3          155
 max len of scratch index in speh4           18
 max int batch size is                      520
 min int batch size is                       52
 fixed nKL is                                52
 max L of basis functions is                  2
 order of int derivative is                   0
 number of shells is                         57
 number of basis is                         125
 number of cartesian basis is               125
 number of contracted shell pairs          1626
 number of primitive shell pairs           3860
 maxK2 (contraction) of shell pair           36
 max number of K2 of shell pair               1
 max number of CS2 of shell pair            236
 max number of PS2 of shell pair            522
 mem total for path MDJ                  512034
 -------------------------------------------------------
 Smallest overlap matrix eigenvalue = 6.04E-04

 Scale SEOQF with 1.000000e-01/1.000000e-01/1.000000e-01

 Standard Electronic Orientation quadrupole field applied
 Nucleus-field energy     =     0.0000000020 hartrees
 Guess from superposition of atomic densities
 Warning:  Energy on first SCF cycle will be non-variational
 SAD guess density has 34.000000 electrons

 -----------------------------------------------------------------------
  General SCF calculation program by
  Eric Jon Sundstrom, Paul Horn, Yuezhi Mao, Dmitri Zuev, Alec White,
  David Stuck, Shaama M.S., Shane Yost, Joonho Lee, David Small,
  Daniel Levine, Susi Lehtola, Hugh Burton, Evgeny Epifanovsky
 -----------------------------------------------------------------------
 Hartree-Fock
 using 4 threads for integral computing
 -------------------------------------------------------
 OpenMP Integral computing Module                
 Release: version 1.0, May 2013, Q-Chem Inc. Pittsburgh 
 -------------------------------------------------------
 A restricted SCF calculation will be
 performed using DIIS
 SCF converges when DIIS error is below 1.0e-08
 ---------------------------------------
  Cycle       Energy         DIIS error
 ---------------------------------------
    1    -370.4604195936      6.00e-02  
    2    -369.2715098014      4.06e-03  
    3    -369.3096521698      1.24e-03  
    4    -369.3135662574      4.46e-04  
    5    -369.3141345217      5.79e-05  
    6    -369.3141525938      1.05e-05  
    7    -369.3141531817      2.75e-06  
    8    -369.3141532160      5.31e-07  
    9    -369.3141532168      1.28e-07  
   10    -369.3141532169      2.55e-08  
   11    -369.3141532169      3.79e-09  Convergence criterion met
 ---------------------------------------
 SCF time:   CPU 7.77s  wall 2.00s 
 SCF   energy in the final basis set =     -369.3141532169
 Total energy in the final basis set =     -369.3141532169
 
 Components of the MP2 correlation energy:
        aaaa  correlation energy =        -0.0432832371 au
        abab  correlation energy =        -0.3388860790 au
        bbbb  correlation energy =        -0.0432832371 au
        non-Brillouin singles    =        -0.0000000000 au

 Total  MP2   correlation energy =                    -0.42545255 au
        MP2         total energy =                  -369.73960577 au
  Entering Z-vector solver.
   1         0           1      0.000204    0.000204
   2         0           1      0.000055    0.000055
   3         0           1      0.000008    0.000008
   4         0           1      0.000002    0.000002
   5         1           0      0.000000    0.000000    Roots Converged
 
 --------------------------------------------------------------
 
                    Orbital Energies (a.u.)
 --------------------------------------------------------------
 
 Alpha MOs
 -- Occupied --
-68.699 -11.186 -11.186  -6.064  -4.171  -4.170  -4.169  -0.979
 -0.932  -0.694  -0.590  -0.578  -0.548  -0.548  -0.472  -0.456
 -0.446
 -- Virtual --
  0.057   0.070   0.077   0.081   0.120   0.123   0.125   0.130
  0.136   0.155   0.191   0.191   0.235   0.247   0.250   0.276
  0.276   0.278   0.327   0.339   0.377   0.382   0.400   0.467
  0.489   0.491   0.517   0.546   0.592   0.636   0.645   0.659
  0.688   0.813   0.824   0.843   0.846   0.865   0.887   0.905
  0.921   0.947   1.065   1.113   1.234   1.237   1.242   1.347
  1.352   1.371   1.439   1.470   1.547   1.599   1.706   1.711
  1.731   1.773   1.823   1.826   1.845   1.873   1.941   1.977
  2.028   2.028   2.036   2.122   2.148   2.188   2.296   2.330
  2.497   2.515   2.526   2.545   2.593   2.710   2.784   2.813
  2.814   2.818   2.835   2.890   2.931   2.945   2.946   2.969
  3.101   3.169   3.202   3.247   3.745   3.835   4.161   4.164
  4.197   4.199   6.330  12.548  12.566  12.569  25.126  25.135
144.174
 --------------------------------------------------------------
 
          Ground-State Mulliken Net Atomic Charges

     Atom                 Charge (a.u.)
  ----------------------------------------
      1 Si                    1.022984
      2 C                    -0.775073
      3 H                    -0.209392
      4 H                    -0.209347
      5 C                    -0.775265
      6 H                     0.155569
      7 H                     0.161829
      8 H                     0.155654
      9 H                     0.161811
     10 H                     0.155599
     11 H                     0.155632
  ----------------------------------------
  Sum of atomic charges =     0.000000

 -----------------------------------------------------------------
                    Cartesian Multipole Moments
 -----------------------------------------------------------------
    Charge (ESU x 10^10)
                 0.0000
    Dipole Moment (Debye)
         X      -0.0003      Y       0.4580      Z       0.0003
       Tot       0.4580
    Quadrupole Moments (Debye-Ang)
        XX     -29.5363     XY       0.0006     YY     -29.9547
        XZ       0.0008     YZ      -0.0004     ZZ     -29.0963
    Octopole Moments (Debye-Ang^2)
       XXX      -0.0040    XXY      -5.1041    XYY       0.0006
       YYY       1.5342    XXZ      -0.0047    XYZ       0.0012
       YYZ      -0.0009    XZZ      -0.0014    YZZ       4.1964
       ZZZ       0.0030
    Hexadecapole Moments (Debye-Ang^3)
      XXXX    -271.6018   XXXY       0.0034   XXYY     -64.1670
      XYYY      -0.0002   YYYY    -116.8107   XXXZ       0.0078
      XXYZ      -0.0005   XYYZ       0.0020   YYYZ      -0.0016
      XXZZ     -54.9362   XYZZ      -0.0002   YYZZ     -30.4681
      XZZZ       0.0024   YZZZ      -0.0008   ZZZZ     -64.9851
 -----------------------------------------------------------------
 DrvMan is completing analytic gradient of the MP2 energy
 MP2 relaxed dipole moment
            1
    1  -0.0001271
    2   0.1801731
    3   0.0001312
	Magnitude:	 0.180 au	 0.458 Debye
 MP2 energy read as -369.739606
 Full Analytical Gradient of MP2 Energy (in au.)
             1             2             3             4             5
    1   -0.00020102    0.04710153    0.00000541    0.00000971   -0.04726043
    2   -0.04166121   -0.03207478    0.06275995    0.06277600   -0.03178761
    3    0.00001744   -0.00017115    0.08550142   -0.08546999    0.00022990
             6             7             8             9            10
    1    0.00471462    0.00506647    0.00466651   -0.00476266   -0.00465567
    2   -0.00342006   -0.00298912   -0.00353354   -0.00316113   -0.00337996
    3    0.00014904   -0.00002735    0.00001061   -0.00001912   -0.00019650
            11
    1   -0.00468447
    2   -0.00352855
    3   -0.00002429
 Gradient time:  CPU 0.13 s  wall 0.11 s
 Geometry Optimization Parameters
   NAtoms,    NIC,     NZ,  NCons,   NDum,   NFix, NCnnct, MaxDiis
       11      68       0       0       0       0       0       0


** GEOMETRY OPTIMIZATION IN DELOCALIZED INTERNAL COORDINATES **
   Searching for a Minimum

   Optimization Cycle:   1

                       Coordinates (Angstroms)
     ATOM                X               Y               Z
      1  Si       -0.0001797111   -0.5118997046    0.0000095932
      2  C        -1.4401677824    0.4700373374   -0.0000029533
      3  H        -0.0005456204   -1.2648636020   -1.0550289063
      4  H        -0.0002932358   -1.2653718824    1.0546994360
      5  C         1.4404099232    0.4697578237    0.0000619102
      6  H        -1.4527187159    1.0992344864    0.8912278932
      7  H        -2.3229860815   -0.1694067383   -0.0003561775
      8  H        -1.4529340570    1.0996668525   -0.8905492440
      9  H         2.3237040023   -0.1699197133   -0.0004054796
     10  H         1.4533107391    1.0994589306   -0.8909263529
     11  H         1.4535260802    1.0990265645    0.8908507843
   Point Group: c1    Number of degrees of freedom:    27


   Energy is   -369.739605770


 Attempting to Generate Delocalized Internal Coordinates

 27 Hessian modes will be used to form the next step
  Hessian Eigenvalues:
     0.021806    0.021851    0.051612    0.062369    0.069527    0.069584
     0.069654    0.069700    0.089758    0.124582    0.160000    0.160000
     0.160000    0.160000    0.160000    0.160000    0.219887    0.302624
     0.302636    0.311495    0.311834    0.346832    0.346943    0.347296
     0.347303    0.347440    0.348043

 Minimum Search - Taking Simple RFO Step
 Searching for Lamda that Minimizes Along All modes
 Value Taken    Lamda =  -0.08707408
 Calculated Step too Large.  Step scaled by  0.633678
 Step Taken.  Stepsize is  0.300000

                             Maximum     Tolerance    Cnvgd?
         Gradient           0.122447      0.000020      NO
         Displacement       0.196954      0.000120      NO
         Energy change     *********      0.000000      NO


 New Cartesian Coordinates Obtained by Inverse Iteration

 Displacement from previous Coordinates is:  0.447412
 ----------------------------------------------------------------
             Standard Nuclear Orientation (Angstroms)
    I     Atom           X                Y                Z
 ----------------------------------------------------------------
    1      Si     -0.0001043676    -0.5325897268    -0.0000247741
    2      C      -1.4915555624     0.4850724568     0.0000408999
    3      H      -0.0004141890    -1.3407055034    -1.1278099058
    4      H      -0.0002018105    -1.3412024690     1.1274050791
    5      C       1.4918221553     0.4847086558     0.0000242542
    6      H      -1.5173713939     1.1214417940     0.8876895469
    7      H      -2.3850296176    -0.1425518142    -0.0002680765
    8      H      -1.5174821929     1.1219276202    -0.8870648317
    9      H       2.3854924260    -0.1430840422    -0.0004167903
   10      H       1.5178503867     1.1215032062    -0.8873759638
   11      H       1.5181197065     1.1212001772     0.8873810656
 ----------------------------------------------------------------
 Molecular Point Group                 C1    NOp =  1
 Largest Abelian Subgroup              C1    NOp =  1
 Nuclear Repulsion Energy =   117.9419292099 hartrees
 There are       17 alpha and       17 beta electrons
 Applying Cartesian multipole field
    Component          Value
    ---------          -----
     (2,0,0)        1.00000E-11
     (0,2,0)        2.00000E-11
     (0,0,2)       -3.00000E-11
 Nucleus-field energy     =     0.0000000022 hartrees
 Requested basis set is 6-311+G(d,p)
 There are 57 shells and 122 basis functions
 A cutoff of  1.0D-11 yielded   1616 shell pairs
 There are      7523 function pairs (      7910 Cartesian)
 Smallest overlap matrix eigenvalue = 6.53E-04
 Guess MOs from SCF MO coefficient file
 Reading MOs from coefficient file
 Reading MOs from coefficient file

 -----------------------------------------------------------------------
  General SCF calculation program by
  Eric Jon Sundstrom, Paul Horn, Yuezhi Mao, Dmitri Zuev, Alec White,
  David Stuck, Shaama M.S., Shane Yost, Joonho Lee, David Small,
  Daniel Levine, Susi Lehtola, Hugh Burton, Evgeny Epifanovsky
 -----------------------------------------------------------------------
 Hartree-Fock
 using 4 threads for integral computing
 -------------------------------------------------------
 OpenMP Integral computing Module                
 Release: version 1.0, May 2013, Q-Chem Inc. Pittsburgh 
 -------------------------------------------------------
 A restricted SCF calculation will be
 performed using DIIS
 SCF converges when DIIS error is below 1.0e-08
 ---------------------------------------
  Cycle       Energy         DIIS error
 ---------------------------------------
    1    -369.2992279420      4.25e-03  
    2    -369.3543457213      3.69e-04  
    3    -369.3545769626      8.46e-05  
    4    -369.3545943758      2.47e-05  
    5    -369.3545973164      6.90e-06  
    6    -369.3545975080      1.93e-06  
    7    -369.3545975265      3.64e-07  
    8    -369.3545975270      9.22e-08  
    9    -369.3545975270      1.38e-08  
   10    -369.3545975270      2.66e-09  Convergence criterion met
 ---------------------------------------
 SCF time:   CPU 8.49s  wall 2.00s 
 SCF   energy in the final basis set =     -369.3545975270
 Total energy in the final basis set =     -369.3545975270
 
 Components of the MP2 correlation energy:
        aaaa  correlation energy =        -0.0427292590 au
        abab  correlation energy =        -0.3381313577 au
        bbbb  correlation energy =        -0.0427292590 au
        non-Brillouin singles    =        -0.0000000000 au

 Total  MP2   correlation energy =                    -0.42358988 au
        MP2         total energy =                  -369.77818740 au
  Entering Z-vector solver.
   1         0           1      0.000213    0.000213
   2         0           1      0.000054    0.000054
   3         0           1      0.000008    0.000008
   4         0           1      0.000002    0.000002
   5         1           0      0.000000    0.000000    Roots Converged
 
 --------------------------------------------------------------
 
                    Orbital Energies (a.u.)
 --------------------------------------------------------------
 
 Alpha MOs
 -- Occupied --
-68.730 -11.195 -11.195  -6.085  -4.192  -4.192  -4.191  -0.968
 -0.930  -0.684  -0.580  -0.571  -0.546  -0.546  -0.464  -0.453
 -0.445
 -- Virtual --
  0.058   0.070   0.078   0.082   0.118   0.121   0.125   0.129
  0.136   0.154   0.191   0.191   0.229   0.235   0.239   0.273
  0.275   0.278   0.325   0.326   0.378   0.379   0.393   0.453
  0.482   0.487   0.519   0.532   0.598   0.622   0.642   0.671
  0.684   0.774   0.823   0.833   0.842   0.869   0.885   0.900
  0.919   0.950   1.070   1.109   1.166   1.181   1.181   1.329
  1.331   1.362   1.417   1.475   1.549   1.598   1.705   1.717
  1.727   1.744   1.816   1.828   1.856   1.860   1.912   1.943
  1.982   2.018   2.026   2.083   2.100   2.131   2.287   2.339
  2.427   2.494   2.495   2.503   2.548   2.608   2.779   2.791
  2.801   2.808   2.838   2.891   2.902   2.923   2.928   2.958
  3.079   3.127   3.147   3.234   3.656   3.751   4.150   4.153
  4.180   4.182   6.293  12.448  12.448  12.477  25.113  25.122
144.104
 --------------------------------------------------------------
 
          Ground-State Mulliken Net Atomic Charges

     Atom                 Charge (a.u.)
  ----------------------------------------
      1 Si                    0.965064
      2 C                    -0.767787
      3 H                    -0.192161
      4 H                    -0.192134
      5 C                    -0.767875
      6 H                     0.157543
      7 H                     0.162319
      8 H                     0.157592
      9 H                     0.162309
     10 H                     0.157553
     11 H                     0.157577
  ----------------------------------------
  Sum of atomic charges =     0.000000

 -----------------------------------------------------------------
                    Cartesian Multipole Moments
 -----------------------------------------------------------------
    Charge (ESU x 10^10)
                 0.0000
    Dipole Moment (Debye)
         X      -0.0001      Y       0.5389      Z       0.0003
       Tot       0.5389
    Quadrupole Moments (Debye-Ang)
        XX     -29.5977     XY       0.0004     YY     -30.3410
        XZ       0.0004     YZ      -0.0002     ZZ     -29.6151
    Octopole Moments (Debye-Ang^2)
       XXX      -0.0046    XXY      -4.1512    XYY       0.0000
       YYY       3.0365    XXZ      -0.0032    XYZ       0.0011
       YYZ      -0.0004    XZZ      -0.0013    YZZ       4.6415
       ZZZ       0.0041
    Hexadecapole Moments (Debye-Ang^3)
      XXXX    -286.4586   XXXY       0.0079   XXYY     -68.0308
      XYYY       0.0044   YYYY    -125.2706   XXXZ       0.0067
      XXYZ      -0.0001   XYYZ       0.0024   YYYZ      -0.0024
      XXZZ     -58.4376   XYZZ       0.0015   YYZZ     -32.5591
      XZZZ       0.0033   YZZZ      -0.0020   ZZZZ     -69.1117
 -----------------------------------------------------------------
 DrvMan is completing analytic gradient of the MP2 energy
 MP2 relaxed dipole moment
            1
    1  -0.0000376
    2   0.2120283
    3   0.0001083
	Magnitude:	 0.212 au	 0.539 Debye
 MP2 energy read as -369.778187
 Full Analytical Gradient of MP2 Energy (in au.)
             1             2             3             4             5
    1   -0.00008193    0.02128744   -0.00000379    0.00000491   -0.02138881
    2   -0.01343140   -0.01464796    0.02633030    0.02633405   -0.01452555
    3    0.00002108   -0.00008977    0.03502999   -0.03502134    0.00012292
             6             7             8             9            10
    1    0.00227300    0.00251940    0.00224113   -0.00236653   -0.00223241
    2   -0.00178027   -0.00138545   -0.00183714   -0.00146050   -0.00176454
    3    0.00004543   -0.00001743    0.00003534   -0.00001710   -0.00006944
            11
    1   -0.00225240
    2   -0.00183154
    3   -0.00003968
 Gradient time:  CPU 0.12 s  wall 0.11 s
 Geometry Optimization Parameters
   NAtoms,    NIC,     NZ,  NCons,   NDum,   NFix, NCnnct, MaxDiis
       11      68       0       0       0       0       0       0

 Cartesian Hessian Update
 Hessian Updated using BFGS Update


** GEOMETRY OPTIMIZATION IN DELOCALIZED INTERNAL COORDINATES **
   Searching for a Minimum

   Optimization Cycle:   2

                       Coordinates (Angstroms)
     ATOM                X               Y               Z
      1  Si       -0.0001043676   -0.5325897268   -0.0000247741
      2  C        -1.4915555624    0.4850724568    0.0000408999
      3  H        -0.0004141890   -1.3407055034   -1.1278099058
      4  H        -0.0002018105   -1.3412024690    1.1274050791
      5  C         1.4918221553    0.4847086558    0.0000242542
      6  H        -1.5173713939    1.1214417940    0.8876895469
      7  H        -2.3850296176   -0.1425518142   -0.0002680765
      8  H        -1.5174821929    1.1219276202   -0.8870648317
      9  H         2.3854924260   -0.1430840422   -0.0004167903
     10  H         1.5178503867    1.1215032062   -0.8873759638
     11  H         1.5181197065    1.1212001772    0.8873810656
   Point Group: c1    Number of degrees of freedom:    27


   Energy is   -369.778187403

 Hessian Updated using BFGS Update

 23 Hessian modes will be used to form the next step
  Hessian Eigenvalues:
     0.021806    0.021851    0.051612    0.062370    0.069527    0.069584
     0.069654    0.069700    0.089758    0.124582    0.159999    0.160653
     0.219825    0.302630    0.306674    0.311669    0.346796    0.346920
     0.347246    0.347300    0.347424    0.348020    0.355248

 Minimum Search - Taking Simple RFO Step
 Searching for Lamda that Minimizes Along All modes
 Value Taken    Lamda =  -0.01727388
 Step Taken.  Stepsize is  0.218830

                             Maximum     Tolerance    Cnvgd?
         Gradient           0.049945      0.000020      NO
         Displacement       0.139569      0.000120      NO
         Energy change     -0.038582      0.000000      NO


 New Cartesian Coordinates Obtained by Inverse Iteration

 Displacement from previous Coordinates is:  0.346093
 ----------------------------------------------------------------
             Standard Nuclear Orientation (Angstroms)
    I     Atom           X                Y                Z
 ----------------------------------------------------------------
    1      Si     -0.0000380482    -0.5540410254    -0.0000908518
    2      C      -1.5318207439     0.4967515466     0.0001004539
    3      H      -0.0002472595    -1.4024712417    -1.1737671944
    4      H      -0.0001348118    -1.4029101738     1.1732671172
    5      C       1.5321291422     0.4963337974    -0.0000404859
    6      H      -1.5674933361     1.1400043555     0.8844782444
    7      H      -2.4360369296    -0.1187662110    -0.0001402439
    8      H      -1.5674342067     1.1405168897    -0.8838933964
    9      H       2.4362380268    -0.1193733932    -0.0003829800
   10      H       1.5678302094     1.1399561762    -0.8841614794
   11      H       1.5681334979     1.1397196342     0.8842113197
 ----------------------------------------------------------------
 Molecular Point Group                 C1    NOp =  1
 Largest Abelian Subgroup              C1    NOp =  1
 Nuclear Repulsion Energy =   115.0839863296 hartrees
 There are       17 alpha and       17 beta electrons
 Applying Cartesian multipole field
    Component          Value
    ---------          -----
     (2,0,0)        1.00000E-11
     (0,2,0)        2.00000E-11
     (0,0,2)       -3.00000E-11
 Nucleus-field energy     =     0.0000000023 hartrees
 Requested basis set is 6-311+G(d,p)
 There are 57 shells and 122 basis functions
 A cutoff of  1.0D-11 yielded   1616 shell pairs
 There are      7523 function pairs (      7910 Cartesian)
 Smallest overlap matrix eigenvalue = 6.94E-04
 Guess MOs from SCF MO coefficient file
 Reading MOs from coefficient file
 Reading MOs from coefficient file

 -----------------------------------------------------------------------
  General SCF calculation program by
  Eric Jon Sundstrom, Paul Horn, Yuezhi Mao, Dmitri Zuev, Alec White,
  David Stuck, Shaama M.S., Shane Yost, Joonho Lee, David Small,
  Daniel Levine, Susi Lehtola, Hugh Burton, Evgeny Epifanovsky
 -----------------------------------------------------------------------
 Hartree-Fock
 using 4 threads for integral computing
 -------------------------------------------------------
 OpenMP Integral computing Module                
 Release: version 1.0, May 2013, Q-Chem Inc. Pittsburgh 
 -------------------------------------------------------
 A restricted SCF calculation will be
 performed using DIIS
 SCF converges when DIIS error is below 1.0e-08
 ---------------------------------------
  Cycle       Energy         DIIS error
 ---------------------------------------
    1    -369.3199480675      2.59e-03  
    2    -369.3661808305      2.60e-04  
    3    -369.3663234913      6.25e-05  
    4    -369.3663342571      1.82e-05  
    5    -369.3663358874      5.40e-06  
    6    -369.3663360193      1.22e-06  
    7    -369.3663360281      1.95e-07  
    8    -369.3663360282      5.73e-08  
    9    -369.3663360283      1.01e-08  
   10    -369.3663360283      2.00e-09  Convergence criterion met
 ---------------------------------------
 SCF time:   CPU 7.67s  wall 2.00s 
 SCF   energy in the final basis set =     -369.3663360283
 Total energy in the final basis set =     -369.3663360283
 
 Components of the MP2 correlation energy:
        aaaa  correlation energy =        -0.0423598397 au
        abab  correlation energy =        -0.3379386052 au
        bbbb  correlation energy =        -0.0423598397 au
        non-Brillouin singles    =        -0.0000000000 au

 Total  MP2   correlation energy =                    -0.42265828 au
        MP2         total energy =                  -369.78899431 au
  Entering Z-vector solver.
   1         0           1      0.000220    0.000220
   2         0           1      0.000053    0.000053
   3         0           1      0.000008    0.000008
   4         0           1      0.000002    0.000002
   5         1           0      0.000000    0.000000    Roots Converged
 
 --------------------------------------------------------------
 
                    Orbital Energies (a.u.)
 --------------------------------------------------------------
 
 Alpha MOs
 -- Occupied --
-68.751 -11.201 -11.201  -6.101  -4.208  -4.207  -4.207  -0.960
 -0.928  -0.677  -0.572  -0.566  -0.544  -0.544  -0.460  -0.450
 -0.442
 -- Virtual --
  0.058   0.070   0.078   0.083   0.117   0.119   0.125   0.129
  0.136   0.153   0.191   0.192   0.223   0.224   0.233   0.272
  0.273   0.280   0.311   0.325   0.375   0.381   0.388   0.442
  0.476   0.485   0.520   0.522   0.592   0.627   0.641   0.677
  0.679   0.749   0.820   0.827   0.840   0.873   0.885   0.898
  0.920   0.950   1.071   1.103   1.121   1.138   1.139   1.313
  1.319   1.352   1.397   1.480   1.551   1.596   1.701   1.718
  1.727   1.727   1.810   1.835   1.848   1.868   1.889   1.922
  1.944   2.015   2.018   2.052   2.066   2.095   2.270   2.352
  2.373   2.447   2.482   2.493   2.528   2.565   2.775   2.779
  2.788   2.801   2.838   2.889   2.889   2.907   2.915   2.951
  3.050   3.095   3.119   3.220   3.599   3.692   4.141   4.146
  4.168   4.169   6.250  12.373  12.384  12.416  25.103  25.111
144.037
 --------------------------------------------------------------
 
          Ground-State Mulliken Net Atomic Charges

     Atom                 Charge (a.u.)
  ----------------------------------------
      1 Si                    0.921893
      2 C                    -0.758135
      3 H                    -0.180999
      4 H                    -0.180991
      5 C                    -0.758153
      6 H                     0.158234
      7 H                     0.161728
      8 H                     0.158236
      9 H                     0.161727
     10 H                     0.158224
     11 H                     0.158235
  ----------------------------------------
  Sum of atomic charges =     0.000000

 -----------------------------------------------------------------
                    Cartesian Multipole Moments
 -----------------------------------------------------------------
    Charge (ESU x 10^10)
                 0.0000
    Dipole Moment (Debye)
         X       0.0000      Y       0.5809      Z       0.0001
       Tot       0.5809
    Quadrupole Moments (Debye-Ang)
        XX     -29.6340     XY       0.0000     YY     -30.6003
        XZ      -0.0000     YZ      -0.0000     ZZ     -29.9829
    Octopole Moments (Debye-Ang^2)
       XXX      -0.0069    XXY      -3.3029    XYY      -0.0006
       YYY       4.2980    XXZ      -0.0002    XYZ       0.0007
       YYZ       0.0003    XZZ      -0.0014    YZZ       4.9687
       ZZZ       0.0062
    Hexadecapole Moments (Debye-Ang^3)
      XXXX    -298.4944   XXXY       0.0102   XXYY     -71.2153
      XYYY       0.0087   YYYY    -132.5046   XXXZ       0.0067
      XXYZ       0.0004   XYYZ       0.0029   YYYZ      -0.0038
      XXZZ     -61.2793   XYZZ       0.0032   YYZZ     -34.2181
      XZZZ       0.0058   YZZZ      -0.0039   ZZZZ     -71.9769
 -----------------------------------------------------------------
 DrvMan is completing analytic gradient of the MP2 energy
 MP2 relaxed dipole moment
            1
    1   0.0000017
    2   0.2285258
    3   0.0000536
	Magnitude:	 0.229 au	 0.581 Debye
 MP2 energy read as -369.788994
 Full Analytical Gradient of MP2 Energy (in au.)
             1             2             3             4             5
    1   -0.00002697    0.00632374   -0.00000123    0.00000062   -0.00632088
    2   -0.00644228   -0.00434596    0.00816731    0.00816880   -0.00432676
    3    0.00000367   -0.00000939    0.01071471   -0.01071266    0.00002187
             6             7             8             9            10
    1    0.00018395    0.00027783    0.00017755   -0.00026363   -0.00017320
    2   -0.00021225   -0.00018456   -0.00021512   -0.00018317   -0.00021282
    3    0.00005433   -0.00000322   -0.00004836   -0.00000866   -0.00005904
            11
    1   -0.00017778
    2   -0.00021319
    3    0.00004675
 Gradient time:  CPU 0.13 s  wall 0.12 s
 Geometry Optimization Parameters
   NAtoms,    NIC,     NZ,  NCons,   NDum,   NFix, NCnnct, MaxDiis
       11      68       0       0       0       0       0       0

 Cartesian Hessian Update
 Hessian Updated using BFGS Update


** GEOMETRY OPTIMIZATION IN DELOCALIZED INTERNAL COORDINATES **
   Searching for a Minimum

   Optimization Cycle:   3

                       Coordinates (Angstroms)
     ATOM                X               Y               Z
      1  Si       -0.0000380482   -0.5540410254   -0.0000908518
      2  C        -1.5318207439    0.4967515466    0.0001004539
      3  H        -0.0002472595   -1.4024712417   -1.1737671944
      4  H        -0.0001348118   -1.4029101738    1.1732671172
      5  C         1.5321291422    0.4963337974   -0.0000404859
      6  H        -1.5674933361    1.1400043555    0.8844782444
      7  H        -2.4360369296   -0.1187662110   -0.0001402439
      8  H        -1.5674342067    1.1405168897   -0.8838933964
      9  H         2.4362380268   -0.1193733932   -0.0003829800
     10  H         1.5678302094    1.1399561762   -0.8841614794
     11  H         1.5681334979    1.1397196342    0.8842113197
   Point Group: c1    Number of degrees of freedom:    27


   Energy is   -369.788994313

 Hessian Updated using BFGS Update

 24 Hessian modes will be used to form the next step
  Hessian Eigenvalues:
     0.021806    0.021851    0.051612    0.062370    0.069527    0.069584
     0.069651    0.069697    0.089758    0.124582    0.160000    0.160001
     0.161739    0.219025    0.264180    0.302630    0.311040    0.311690
     0.346838    0.346950    0.347299    0.347318    0.347447    0.348051

 Minimum Search - Taking Simple RFO Step
 Searching for Lamda that Minimizes Along All modes
 Value Taken    Lamda =  -0.00192444
 Step Taken.  Stepsize is  0.085461

                             Maximum     Tolerance    Cnvgd?
         Gradient           0.015503      0.000020      NO
         Displacement       0.054854      0.000120      NO
         Energy change     -0.010807      0.000000      NO


 New Cartesian Coordinates Obtained by Inverse Iteration

 Displacement from previous Coordinates is:  0.115462
 ----------------------------------------------------------------
             Standard Nuclear Orientation (Angstroms)
    I     Atom           X                Y                Z
 ----------------------------------------------------------------
    1      Si     -0.0000096592    -0.5612360582    -0.0001201761
    2      C      -1.5441594607     0.5026625606     0.0001173698
    3      H      -0.0001870561    -1.4276236919    -1.1934685551
    4      H      -0.0000864646    -1.4280319020     1.1929318678
    5      C       1.5444696670     0.5022250899    -0.0000743253
    6      H      -1.5783693003     1.1468635610     0.8841187339
    7      H      -2.4509510471    -0.1095561611    -0.0000932895
    8      H      -1.5782804065     1.1473439118    -0.8835385229
    9      H       2.4510933670    -0.1102416739    -0.0003380845
   10      H       1.5786675792     1.1468027755    -0.8838063109
   11      H       1.5789383220     1.1465119427     0.8838517962
 ----------------------------------------------------------------
 Molecular Point Group                 C1    NOp =  1
 Largest Abelian Subgroup              C1    NOp =  1
 Nuclear Repulsion Energy =   114.1444025196 hartrees
 There are       17 alpha and       17 beta electrons
 Applying Cartesian multipole field
    Component          Value
    ---------          -----
     (2,0,0)        1.00000E-11
     (0,2,0)        2.00000E-11
     (0,0,2)       -3.00000E-11
 Nucleus-field energy     =     0.0000000024 hartrees
 Requested basis set is 6-311+G(d,p)
 There are 57 shells and 122 basis functions
 A cutoff of  1.0D-11 yielded   1616 shell pairs
 There are      7523 function pairs (      7910 Cartesian)
 Smallest overlap matrix eigenvalue = 7.05E-04
 Guess MOs from SCF MO coefficient file
 Reading MOs from coefficient file
 Reading MOs from coefficient file

 -----------------------------------------------------------------------
  General SCF calculation program by
  Eric Jon Sundstrom, Paul Horn, Yuezhi Mao, Dmitri Zuev, Alec White,
  David Stuck, Shaama M.S., Shane Yost, Joonho Lee, David Small,
  Daniel Levine, Susi Lehtola, Hugh Burton, Evgeny Epifanovsky
 -----------------------------------------------------------------------
 Hartree-Fock
 using 4 threads for integral computing
 -------------------------------------------------------
 OpenMP Integral computing Module                
 Release: version 1.0, May 2013, Q-Chem Inc. Pittsburgh 
 -------------------------------------------------------
 A restricted SCF calculation will be
 performed using DIIS
 SCF converges when DIIS error is below 1.0e-08
 ---------------------------------------
  Cycle       Energy         DIIS error
 ---------------------------------------
    1    -369.3491150204      9.34e-04  
    2    -369.3676740932      1.05e-04  
    3    -369.3677009668      2.59e-05  
    4    -369.3677028480      7.38e-06  
    5    -369.3677031027      2.40e-06  
    6    -369.3677031321      5.05e-07  
    7    -369.3677031337      7.98e-08  
    8    -369.3677031337      2.09e-08  
    9    -369.3677031337      4.16e-09  Convergence criterion met
 ---------------------------------------
 SCF time:   CPU 6.77s  wall 1.00s 
 SCF   energy in the final basis set =     -369.3677031337
 Total energy in the final basis set =     -369.3677031337
 
 Components of the MP2 correlation energy:
        aaaa  correlation energy =        -0.0422484351 au
        abab  correlation energy =        -0.3379095561 au
        bbbb  correlation energy =        -0.0422484351 au
        non-Brillouin singles    =        -0.0000000000 au

 Total  MP2   correlation energy =                    -0.42240643 au
        MP2         total energy =                  -369.79010956 au
  Entering Z-vector solver.
   1         0           1      0.000222    0.000222
   2         0           1      0.000053    0.000053
   3         0           1      0.000008    0.000008
   4         0           1      0.000002    0.000002
   5         1           0      0.000000    0.000000    Roots Converged
 
 --------------------------------------------------------------
 
                    Orbital Energies (a.u.)
 --------------------------------------------------------------
 
 Alpha MOs
 -- Occupied --
-68.759 -11.204 -11.204  -6.107  -4.214  -4.213  -4.213  -0.958
 -0.927  -0.674  -0.570  -0.565  -0.544  -0.544  -0.457  -0.449
 -0.441
 -- Virtual --
  0.058   0.070   0.078   0.083   0.117   0.119   0.125   0.129
  0.136   0.153   0.191   0.192   0.218   0.221   0.231   0.271
  0.273   0.279   0.305   0.324   0.374   0.382   0.387   0.439
  0.473   0.484   0.519   0.520   0.587   0.629   0.641   0.677
  0.677   0.741   0.819   0.825   0.839   0.874   0.885   0.897
  0.921   0.950   1.070   1.098   1.102   1.124   1.128   1.309
  1.316   1.350   1.391   1.482   1.552   1.594   1.697   1.714
  1.726   1.727   1.807   1.837   1.844   1.865   1.885   1.913
  1.931   2.013   2.015   2.043   2.055   2.084   2.255   2.351
  2.356   2.420   2.478   2.492   2.523   2.553   2.771   2.779
  2.786   2.800   2.838   2.885   2.889   2.903   2.912   2.949
  3.035   3.083   3.114   3.217   3.580   3.671   4.139   4.144
  4.165   4.166   6.233  12.345  12.363  12.397  25.101  25.108
144.011
 --------------------------------------------------------------
 
          Ground-State Mulliken Net Atomic Charges

     Atom                 Charge (a.u.)
  ----------------------------------------
      1 Si                    0.902288
      2 C                    -0.752766
      3 H                    -0.176956
      4 H                    -0.176954
      5 C                    -0.752765
      6 H                     0.158428
      7 H                     0.161730
      8 H                     0.158421
      9 H                     0.161730
     10 H                     0.158419
     11 H                     0.158426
  ----------------------------------------
  Sum of atomic charges =     0.000000

 -----------------------------------------------------------------
                    Cartesian Multipole Moments
 -----------------------------------------------------------------
    Charge (ESU x 10^10)
                 0.0000
    Dipole Moment (Debye)
         X       0.0000      Y       0.6060      Z       0.0001
       Tot       0.6060
    Quadrupole Moments (Debye-Ang)
        XX     -29.6744     XY      -0.0001     YY     -30.7259
        XZ      -0.0000     YZ      -0.0001     ZZ     -30.1207
    Octopole Moments (Debye-Ang^2)
       XXX      -0.0083    XXY      -3.0803    XYY      -0.0009
       YYY       4.7862    XXZ       0.0010    XYZ       0.0005
       YYZ       0.0006    XZZ      -0.0016    YZZ       5.1218
       ZZZ       0.0074
    Hexadecapole Moments (Debye-Ang^3)
      XXXX    -302.0356   XXXY       0.0106   XXYY     -72.3675
      XYYY       0.0113   YYYY    -135.6376   XXXZ       0.0079
      XXYZ       0.0002   XYYZ       0.0029   YYYZ      -0.0046
      XXZZ     -62.1916   XYZZ       0.0040   YYZZ     -34.9408
      XZZZ       0.0072   YZZZ      -0.0046   ZZZZ     -73.2590
 -----------------------------------------------------------------
 DrvMan is completing analytic gradient of the MP2 energy
 MP2 relaxed dipole moment
            1
    1   0.0000124
    2   0.2383997
    3   0.0000454
	Magnitude:	 0.238 au	 0.606 Debye
 MP2 energy read as -369.790110
 Full Analytical Gradient of MP2 Energy (in au.)
             1             2             3             4             5
    1   -0.00000744    0.00144087    0.00000074   -0.00000039   -0.00143322
    2   -0.00204342   -0.00080431    0.00162145    0.00162151   -0.00080007
    3   -0.00000037    0.00000013    0.00201917   -0.00201870    0.00000513
             6             7             8             9            10
    1   -0.00019081   -0.00013025   -0.00018993    0.00013083    0.00018941
    2    0.00010033    0.00000119    0.00010080    0.00000139    0.00010026
    3    0.00001154   -0.00000019   -0.00001174   -0.00000198   -0.00001328
            11
    1    0.00019017
    2    0.00010087
    3    0.00001030
 Gradient time:  CPU 0.11 s  wall 0.10 s
 Geometry Optimization Parameters
   NAtoms,    NIC,     NZ,  NCons,   NDum,   NFix, NCnnct, MaxDiis
       11      68       0       0       0       0       0       0

 Cartesian Hessian Update
 Hessian Updated using BFGS Update


** GEOMETRY OPTIMIZATION IN DELOCALIZED INTERNAL COORDINATES **
   Searching for a Minimum

   Optimization Cycle:   4

                       Coordinates (Angstroms)
     ATOM                X               Y               Z
      1  Si       -0.0000096592   -0.5612360582   -0.0001201761
      2  C        -1.5441594607    0.5026625606    0.0001173698
      3  H        -0.0001870561   -1.4276236919   -1.1934685551
      4  H        -0.0000864646   -1.4280319020    1.1929318678
      5  C         1.5444696670    0.5022250899   -0.0000743253
      6  H        -1.5783693003    1.1468635610    0.8841187339
      7  H        -2.4509510471   -0.1095561611   -0.0000932895
      8  H        -1.5782804065    1.1473439118   -0.8835385229
      9  H         2.4510933670   -0.1102416739   -0.0003380845
     10  H         1.5786675792    1.1468027755   -0.8838063109
     11  H         1.5789383220    1.1465119427    0.8838517962
   Point Group: c1    Number of degrees of freedom:    27


   Energy is   -369.790109560

 Hessian Updated using BFGS Update

 25 Hessian modes will be used to form the next step
  Hessian Eigenvalues:
     0.021806    0.021851    0.051612    0.062314    0.069527    0.069583
     0.069619    0.069686    0.089758    0.124582    0.159586    0.160000
     0.160000    0.160631    0.212697    0.229586    0.302630    0.310318
     0.311678    0.346844    0.346959    0.347299    0.347332    0.347475
     0.348078

 Minimum Search - Taking Simple RFO Step
 Searching for Lamda that Minimizes Along All modes
 Value Taken    Lamda =  -0.00007750
 Step Taken.  Stepsize is  0.019557

                             Maximum     Tolerance    Cnvgd?
         Gradient           0.003008      0.000020      NO
         Displacement       0.012407      0.000120      NO
         Energy change     -0.001115      0.000000      NO


 New Cartesian Coordinates Obtained by Inverse Iteration

 Displacement from previous Coordinates is:  0.022191
 ----------------------------------------------------------------
             Standard Nuclear Orientation (Angstroms)
    I     Atom           X                Y                Z
 ----------------------------------------------------------------
    1      Si     -0.0000032203    -0.5621331343    -0.0001331880
    2      C      -1.5460907146     0.5042574612     0.0001167969
    3      H      -0.0001905912    -1.4332204513    -1.1977245429
    4      H      -0.0000648691    -1.4336110619     1.1971738468
    5      C       1.5463947584     0.5038169357    -0.0000833270
    6      H      -1.5777279756     1.1479780616     0.8844160583
    7      H      -2.4531043356    -0.1073175388    -0.0000737622
    8      H      -1.5776678465     1.1484422986    -0.8838478385
    9      H       2.4532328729    -0.1080147183    -0.0003187545
   10      H       1.5780573537     1.1479205216    -0.8841040277
   11      H       1.5782901084     1.1476019805     0.8841592422
 ----------------------------------------------------------------
 Molecular Point Group                 C1    NOp =  1
 Largest Abelian Subgroup              C1    NOp =  1
 Nuclear Repulsion Energy =   113.9877113735 hartrees
 There are       17 alpha and       17 beta electrons
 Applying Cartesian multipole field
    Component          Value
    ---------          -----
     (2,0,0)        1.00000E-11
     (0,2,0)        2.00000E-11
     (0,0,2)       -3.00000E-11
 Nucleus-field energy     =     0.0000000024 hartrees
 Requested basis set is 6-311+G(d,p)
 There are 57 shells and 122 basis functions
 A cutoff of  1.0D-11 yielded   1616 shell pairs
 There are      7523 function pairs (      7910 Cartesian)
 Smallest overlap matrix eigenvalue = 7.05E-04
 Guess MOs from SCF MO coefficient file
 Reading MOs from coefficient file
 Reading MOs from coefficient file

 -----------------------------------------------------------------------
  General SCF calculation program by
  Eric Jon Sundstrom, Paul Horn, Yuezhi Mao, Dmitri Zuev, Alec White,
  David Stuck, Shaama M.S., Shane Yost, Joonho Lee, David Small,
  Daniel Levine, Susi Lehtola, Hugh Burton, Evgeny Epifanovsky
 -----------------------------------------------------------------------
 Hartree-Fock
 using 4 threads for integral computing
 -------------------------------------------------------
 OpenMP Integral computing Module                
 Release: version 1.0, May 2013, Q-Chem Inc. Pittsburgh 
 -------------------------------------------------------
 A restricted SCF calculation will be
 performed using DIIS
 SCF converges when DIIS error is below 1.0e-08
 ---------------------------------------
  Cycle       Energy         DIIS error
 ---------------------------------------
    1    -369.3642517018      2.01e-04  
    2    -369.3677909460      2.43e-05  
    3    -369.3677925616      6.27e-06  
    4    -369.3677926756      1.89e-06  
    5    -369.3677926915      6.04e-07  
    6    -369.3677926935      1.35e-07  
    7    -369.3677926936      3.07e-08  
    8    -369.3677926936      8.15e-09  Convergence criterion met
 ---------------------------------------
 SCF time:   CPU 5.81s  wall 2.00s 
 SCF   energy in the final basis set =     -369.3677926936
 Total energy in the final basis set =     -369.3677926936
 
 Components of the MP2 correlation energy:
        aaaa  correlation energy =        -0.0422308874 au
        abab  correlation energy =        -0.3378972234 au
        bbbb  correlation energy =        -0.0422308874 au
        non-Brillouin singles    =        -0.0000000000 au

 Total  MP2   correlation energy =                    -0.42235900 au
        MP2         total energy =                  -369.79015169 au
  Entering Z-vector solver.
   1         0           1      0.000223    0.000223
   2         0           1      0.000053    0.000053
   3         0           1      0.000008    0.000008
   4         0           1      0.000002    0.000002
   5         1           0      0.000000    0.000000    Roots Converged
 
 --------------------------------------------------------------
 
                    Orbital Energies (a.u.)
 --------------------------------------------------------------
 
 Alpha MOs
 -- Occupied --
-68.760 -11.204 -11.204  -6.108  -4.215  -4.215  -4.214  -0.958
 -0.927  -0.673  -0.570  -0.566  -0.545  -0.545  -0.456  -0.448
 -0.440
 -- Virtual --
  0.058   0.070   0.078   0.083   0.117   0.119   0.125   0.129
  0.136   0.153   0.191   0.192   0.217   0.221   0.230   0.271
  0.273   0.279   0.304   0.324   0.374   0.382   0.387   0.438
  0.472   0.483   0.518   0.520   0.586   0.630   0.641   0.677
  0.677   0.740   0.819   0.824   0.839   0.874   0.885   0.897
  0.921   0.950   1.069   1.097   1.098   1.122   1.127   1.309
  1.316   1.350   1.390   1.483   1.552   1.593   1.697   1.713
  1.725   1.726   1.806   1.837   1.843   1.864   1.885   1.911
  1.929   2.013   2.015   2.042   2.054   2.083   2.251   2.349
  2.353   2.413   2.477   2.492   2.522   2.550   2.771   2.779
  2.787   2.800   2.838   2.884   2.889   2.902   2.911   2.949
  3.032   3.080   3.114   3.217   3.576   3.666   4.139   4.144
  4.165   4.166   6.229  12.339  12.358  12.393  25.100  25.108
144.005
 --------------------------------------------------------------
 
          Ground-State Mulliken Net Atomic Charges

     Atom                 Charge (a.u.)
  ----------------------------------------
      1 Si                    0.897438
      2 C                    -0.751356
      3 H                    -0.176181
      4 H                    -0.176180
      5 C                    -0.751354
      6 H                     0.158452
      7 H                     0.161921
      8 H                     0.158445
      9 H                     0.161921
     10 H                     0.158445
     11 H                     0.158450
  ----------------------------------------
  Sum of atomic charges =    -0.000000

 -----------------------------------------------------------------
                    Cartesian Multipole Moments
 -----------------------------------------------------------------
    Charge (ESU x 10^10)
                 0.0000
    Dipole Moment (Debye)
         X       0.0001      Y       0.6155      Z       0.0001
       Tot       0.6155
    Quadrupole Moments (Debye-Ang)
        XX     -29.6893     XY      -0.0001     YY     -30.7650
        XZ      -0.0000     YZ      -0.0001     ZZ     -30.1465
    Octopole Moments (Debye-Ang^2)
       XXX      -0.0084    XXY      -3.0803    XYY      -0.0009
       YYY       4.8749    XXZ       0.0012    XYZ       0.0005
       YYZ       0.0007    XZZ      -0.0016    YZZ       5.1608
       ZZZ       0.0080
    Hexadecapole Moments (Debye-Ang^3)
      XXXX    -302.4288   XXXY       0.0110   XXYY     -72.6025
      XYYY       0.0118   YYYY    -136.3459   XXXZ       0.0081
      XXYZ      -0.0002   XYYZ       0.0027   YYYZ      -0.0050
      XXZZ     -62.3265   XYZZ       0.0042   YYZZ     -35.1047
      XZZZ       0.0072   YZZZ      -0.0050   ZZZZ     -73.5557
 -----------------------------------------------------------------
 DrvMan is completing analytic gradient of the MP2 energy
 MP2 relaxed dipole moment
            1
    1   0.0000269
    2   0.2421723
    3   0.0000435
	Magnitude:	 0.242 au	 0.616 Debye
 MP2 energy read as -369.790152
 Full Analytical Gradient of MP2 Energy (in au.)
             1             2             3             4             5
    1   -0.00000177    0.00020998    0.00000043   -0.00000026   -0.00020585
    2   -0.00045844   -0.00002069    0.00018565    0.00018551   -0.00002011
    3   -0.00000010    0.00000053    0.00016671   -0.00016664    0.00000107
             6             7             8             9            10
    1   -0.00009209   -0.00006623   -0.00009126    0.00006522    0.00009035
    2    0.00003549   -0.00000741    0.00003590   -0.00000728    0.00003540
    3    0.00000109   -0.00000020   -0.00000134   -0.00000054   -0.00000136
            11
    1    0.00009148
    2    0.00003597
    3    0.00000077
 Gradient time:  CPU 0.12 s  wall 0.11 s
 Geometry Optimization Parameters
   NAtoms,    NIC,     NZ,  NCons,   NDum,   NFix, NCnnct, MaxDiis
       11      68       0       0       0       0       0       0

 Cartesian Hessian Update
 Hessian Updated using BFGS Update


** GEOMETRY OPTIMIZATION IN DELOCALIZED INTERNAL COORDINATES **
   Searching for a Minimum

   Optimization Cycle:   5

                       Coordinates (Angstroms)
     ATOM                X               Y               Z
      1  Si       -0.0000032203   -0.5621331343   -0.0001331880
      2  C        -1.5460907146    0.5042574612    0.0001167969
      3  H        -0.0001905912   -1.4332204513   -1.1977245429
      4  H        -0.0000648691   -1.4336110619    1.1971738468
      5  C         1.5463947584    0.5038169357   -0.0000833270
      6  H        -1.5777279756    1.1479780616    0.8844160583
      7  H        -2.4531043356   -0.1073175388   -0.0000737622
      8  H        -1.5776678465    1.1484422986   -0.8838478385
      9  H         2.4532328729   -0.1080147183   -0.0003187545
     10  H         1.5780573537    1.1479205216   -0.8841040277
     11  H         1.5782901084    1.1476019805    0.8841592422
   Point Group: c1    Number of degrees of freedom:    27


   Energy is   -369.790151692

 Hessian Updated using BFGS Update

 26 Hessian modes will be used to form the next step
  Hessian Eigenvalues:
     0.021806    0.021851    0.051612    0.061981    0.069222    0.069527
     0.069584    0.069678    0.089758    0.124582    0.147779    0.160000
     0.160000    0.160000    0.160297    0.208373    0.234131    0.302630
     0.308911    0.311672    0.346826    0.346938    0.347292    0.347301
     0.347442    0.348047

 Minimum Search - Taking Simple RFO Step
 Searching for Lamda that Minimizes Along All modes
 Value Taken    Lamda =  -0.00000147
 Step Taken.  Stepsize is  0.003296

                             Maximum     Tolerance    Cnvgd?
         Gradient           0.000277      0.000020      NO
         Displacement       0.002077      0.000120      NO
         Energy change     -0.000042      0.000000      NO


 New Cartesian Coordinates Obtained by Inverse Iteration

 Displacement from previous Coordinates is:  0.005784
 ----------------------------------------------------------------
             Standard Nuclear Orientation (Angstroms)
    I     Atom           X                Y                Z
 ----------------------------------------------------------------
    1      Si     -0.0000026895    -0.5622382147    -0.0001406908
    2      C      -1.5458997562     0.5044789359     0.0001153111
    3      H      -0.0001973581    -1.4341239332    -1.1979976825
    4      H      -0.0000574028    -1.4345054956     1.1974381267
    5      C       1.5462000872     0.5040386114    -0.0000853610
    6      H      -1.5764286130     1.1480440039     0.8845147976
    7      H      -2.4530517245    -0.1067106016    -0.0000611545
    8      H      -1.5763914455     1.1484986147    -0.8839551088
    9      H       2.4531782899    -0.1074073361    -0.0003088663
   10      H       1.5767845503     1.1479878836    -0.8842040833
   11      H       1.5769916029     1.1476578862     0.8842652153
 ----------------------------------------------------------------
 Molecular Point Group                 C1    NOp =  1
 Largest Abelian Subgroup              C1    NOp =  1
 Nuclear Repulsion Energy =   113.9876090801 hartrees
 There are       17 alpha and       17 beta electrons
 Applying Cartesian multipole field
    Component          Value
    ---------          -----
     (2,0,0)        1.00000E-11
     (0,2,0)        2.00000E-11
     (0,0,2)       -3.00000E-11
 Nucleus-field energy     =     0.0000000024 hartrees
 Requested basis set is 6-311+G(d,p)
 There are 57 shells and 122 basis functions
 A cutoff of  1.0D-11 yielded   1616 shell pairs
 There are      7523 function pairs (      7910 Cartesian)
 Smallest overlap matrix eigenvalue = 7.05E-04
 Guess MOs from SCF MO coefficient file
 Reading MOs from coefficient file
 Reading MOs from coefficient file

 -----------------------------------------------------------------------
  General SCF calculation program by
  Eric Jon Sundstrom, Paul Horn, Yuezhi Mao, Dmitri Zuev, Alec White,
  David Stuck, Shaama M.S., Shane Yost, Joonho Lee, David Small,
  Daniel Levine, Susi Lehtola, Hugh Burton, Evgeny Epifanovsky
 -----------------------------------------------------------------------
 Hartree-Fock
 using 4 threads for integral computing
 -------------------------------------------------------
 OpenMP Integral computing Module                
 Release: version 1.0, May 2013, Q-Chem Inc. Pittsburgh 
 -------------------------------------------------------
 A restricted SCF calculation will be
 performed using DIIS
 SCF converges when DIIS error is below 1.0e-08
 ---------------------------------------
  Cycle       Energy         DIIS error
 ---------------------------------------
    1    -369.3676152748      2.63e-05  
    2    -369.3677968237      3.78e-06  
    3    -369.3677968702      1.13e-06  
    4    -369.3677968747      3.98e-07  
    5    -369.3677968754      1.02e-07  
    6    -369.3677968755      2.37e-08  
    7    -369.3677968755      6.11e-09  Convergence criterion met
 ---------------------------------------
 SCF time:   CPU 5.59s  wall 1.00s 
 SCF   energy in the final basis set =     -369.3677968755
 Total energy in the final basis set =     -369.3677968755
 
 Components of the MP2 correlation energy:
        aaaa  correlation energy =        -0.0422310752 au
        abab  correlation energy =        -0.3378935576 au
        bbbb  correlation energy =        -0.0422310752 au
        non-Brillouin singles    =        -0.0000000000 au

 Total  MP2   correlation energy =                    -0.42235571 au
        MP2         total energy =                  -369.79015258 au
  Entering Z-vector solver.
   1         0           1      0.000223    0.000223
   2         0           1      0.000053    0.000053
   3         0           1      0.000008    0.000008
   4         0           1      0.000002    0.000002
   5         1           0      0.000000    0.000000    Roots Converged
 
 --------------------------------------------------------------
 
                    Orbital Energies (a.u.)
 --------------------------------------------------------------
 
 Alpha MOs
 -- Occupied --
-68.761 -11.204 -11.204  -6.108  -4.215  -4.215  -4.214  -0.958
 -0.927  -0.673  -0.570  -0.566  -0.545  -0.545  -0.456  -0.448
 -0.440
 -- Virtual --
  0.058   0.070   0.078   0.083   0.117   0.119   0.125   0.129
  0.136   0.153   0.191   0.192   0.217   0.221   0.230   0.271
  0.273   0.279   0.304   0.324   0.374   0.382   0.387   0.438
  0.472   0.483   0.518   0.519   0.586   0.629   0.641   0.677
  0.677   0.740   0.819   0.824   0.839   0.874   0.885   0.897
  0.921   0.950   1.069   1.097   1.098   1.122   1.127   1.309
  1.317   1.350   1.390   1.483   1.552   1.593   1.697   1.713
  1.725   1.726   1.806   1.837   1.842   1.863   1.885   1.911
  1.929   2.013   2.015   2.043   2.054   2.083   2.250   2.348
  2.352   2.413   2.477   2.492   2.522   2.550   2.771   2.779
  2.787   2.800   2.838   2.884   2.889   2.902   2.912   2.949
  3.032   3.080   3.115   3.217   3.576   3.666   4.139   4.145
  4.165   4.166   6.229  12.338  12.358  12.393  25.100  25.108
144.005
 --------------------------------------------------------------
 
          Ground-State Mulliken Net Atomic Charges

     Atom                 Charge (a.u.)
  ----------------------------------------
      1 Si                    0.896824
      2 C                    -0.751175
      3 H                    -0.176127
      4 H                    -0.176126
      5 C                    -0.751175
      6 H                     0.158444
      7 H                     0.162008
      8 H                     0.158438
      9 H                     0.162008
     10 H                     0.158439
     11 H                     0.158443
  ----------------------------------------
  Sum of atomic charges =     0.000000

 -----------------------------------------------------------------
                    Cartesian Multipole Moments
 -----------------------------------------------------------------
    Charge (ESU x 10^10)
                 0.0000
    Dipole Moment (Debye)
         X       0.0001      Y       0.6179      Z       0.0001
       Tot       0.6179
    Quadrupole Moments (Debye-Ang)
        XX     -29.6917     XY      -0.0001     YY     -30.7726
        XZ      -0.0000     YZ      -0.0001     ZZ     -30.1480
    Octopole Moments (Debye-Ang^2)
       XXX      -0.0083    XXY      -3.0915    XYY      -0.0008
       YYY       4.8869    XXZ       0.0013    XYZ       0.0005
       YYZ       0.0008    XZZ      -0.0016    YZZ       5.1682
       ZZZ       0.0082
    Hexadecapole Moments (Debye-Ang^3)
      XXXX    -302.2827   XXXY       0.0112   XXYY     -72.6185
      XYYY       0.0119   YYYY    -136.4510   XXXZ       0.0080
      XXYZ      -0.0005   XYYZ       0.0026   YYYZ      -0.0053
      XXZZ     -62.3139   XYZZ       0.0042   YYZZ     -35.1271
      XZZZ       0.0072   YZZZ      -0.0053   ZZZZ     -73.5837
 -----------------------------------------------------------------
 DrvMan is completing analytic gradient of the MP2 energy
 MP2 relaxed dipole moment
            1
    1   0.0000323
    2   0.2430849
    3   0.0000414
	Magnitude:	 0.243 au	 0.618 Debye
 MP2 energy read as -369.790153
 Full Analytical Gradient of MP2 Energy (in au.)
             1             2             3             4             5
    1   -0.00000051    0.00003010    0.00000016   -0.00000013   -0.00002856
    2   -0.00009367    0.00003805    0.00001806    0.00001811    0.00003806
    3    0.00000008    0.00000021   -0.00001571    0.00001574    0.00000066
             6             7             8             9            10
    1   -0.00003051   -0.00001323   -0.00003004    0.00001285    0.00002958
    2    0.00000214   -0.00001392    0.00000242   -0.00001386    0.00000220
    3    0.00000118   -0.00000028   -0.00000115   -0.00000036   -0.00000129
            11
    1    0.00003030
    2    0.00000242
    3    0.00000091
 Gradient time:  CPU 0.14 s  wall 0.13 s
 Geometry Optimization Parameters
   NAtoms,    NIC,     NZ,  NCons,   NDum,   NFix, NCnnct, MaxDiis
       11      68       0       0       0       0       0       0

 Cartesian Hessian Update
 Hessian Updated using BFGS Update


** GEOMETRY OPTIMIZATION IN DELOCALIZED INTERNAL COORDINATES **
   Searching for a Minimum

   Optimization Cycle:   6

                       Coordinates (Angstroms)
     ATOM                X               Y               Z
      1  Si       -0.0000026895   -0.5622382147   -0.0001406908
      2  C        -1.5458997562    0.5044789359    0.0001153111
      3  H        -0.0001973581   -1.4341239332   -1.1979976825
      4  H        -0.0000574028   -1.4345054956    1.1974381267
      5  C         1.5462000872    0.5040386114   -0.0000853610
      6  H        -1.5764286130    1.1480440039    0.8845147976
      7  H        -2.4530517245   -0.1067106016   -0.0000611545
      8  H        -1.5763914455    1.1484986147   -0.8839551088
      9  H         2.4531782899   -0.1074073361   -0.0003088663
     10  H         1.5767845503    1.1479878836   -0.8842040833
     11  H         1.5769916029    1.1476578862    0.8842652153
   Point Group: c1    Number of degrees of freedom:    27


   Energy is   -369.790152583

 Hessian Updated using BFGS Update

 26 Hessian modes will be used to form the next step
  Hessian Eigenvalues:
     0.021806    0.021851    0.051610    0.056817    0.065612    0.069527
     0.069584    0.069677    0.089758    0.124570    0.126386    0.160000
     0.160000    0.160000    0.162833    0.206018    0.258940    0.299417
     0.302630    0.311667    0.346190    0.346872    0.347028    0.347300
     0.347438    0.347838

 Minimum Search - Taking Simple RFO Step
 Searching for Lamda that Minimizes Along All modes
 Value Taken    Lamda =   0.00000000
 Step Taken.  Stepsize is  0.001480

                             Maximum     Tolerance    Cnvgd?
         Gradient           0.000128      0.000020      NO
         Displacement       0.000926      0.000120      NO
         Energy change     -0.000001      0.000000      NO


 New Cartesian Coordinates Obtained by Inverse Iteration

 Displacement from previous Coordinates is:  0.003850
 ----------------------------------------------------------------
             Standard Nuclear Orientation (Angstroms)
    I     Atom           X                Y                Z
 ----------------------------------------------------------------
    1      Si     -0.0000027163    -0.5624381279    -0.0001470638
    2      C      -1.5456226600     0.5045111070     0.0001143909
    3      H      -0.0002017409    -1.4345863842    -1.1979070528
    4      H      -0.0000529144    -1.4349629375     1.1973383070
    5      C       1.5459209221     0.5040712707    -0.0000864306
    6      H      -1.5755441183     1.1480747943     0.8845239632
    7      H      -2.4530198009    -0.1062353642    -0.0000484974
    8      H      -1.5755266097     1.1485193868    -0.8839724057
    9      H       2.4531451987    -0.1069316875    -0.0002999948
   10      H       1.5759220177     1.1480175784    -0.8842153465
   11      H       1.5761079626     1.1476807185     0.8842806340
 ----------------------------------------------------------------
 Molecular Point Group                 C1    NOp =  1
 Largest Abelian Subgroup              C1    NOp =  1
 Nuclear Repulsion Energy =   113.9941056696 hartrees
 There are       17 alpha and       17 beta electrons
 Applying Cartesian multipole field
    Component          Value
    ---------          -----
     (2,0,0)        1.00000E-11
     (0,2,0)        2.00000E-11
     (0,0,2)       -3.00000E-11
 Nucleus-field energy     =     0.0000000024 hartrees
 Requested basis set is 6-311+G(d,p)
 There are 57 shells and 122 basis functions
 A cutoff of  1.0D-11 yielded   1616 shell pairs
 There are      7523 function pairs (      7910 Cartesian)
 Smallest overlap matrix eigenvalue = 7.05E-04
 Guess MOs from SCF MO coefficient file
 Reading MOs from coefficient file
 Reading MOs from coefficient file

 -----------------------------------------------------------------------
  General SCF calculation program by
  Eric Jon Sundstrom, Paul Horn, Yuezhi Mao, Dmitri Zuev, Alec White,
  David Stuck, Shaama M.S., Shane Yost, Joonho Lee, David Small,
  Daniel Levine, Susi Lehtola, Hugh Burton, Evgeny Epifanovsky
 -----------------------------------------------------------------------
 Hartree-Fock
 using 4 threads for integral computing
 -------------------------------------------------------
 OpenMP Integral computing Module                
 Release: version 1.0, May 2013, Q-Chem Inc. Pittsburgh 
 -------------------------------------------------------
 A restricted SCF calculation will be
 performed using DIIS
 SCF converges when DIIS error is below 1.0e-08
 ---------------------------------------
  Cycle       Energy         DIIS error
 ---------------------------------------
    1    -369.3678342737      9.94e-06  
    2    -369.3677963048      1.89e-06  
    3    -369.3677963181      5.23e-07  
    4    -369.3677963195      1.48e-07  
    5    -369.3677963196      3.18e-08  
    6    -369.3677963196      8.40e-09  Convergence criterion met
 ---------------------------------------
 SCF time:   CPU 4.64s  wall 2.00s 
 SCF   energy in the final basis set =     -369.3677963196
 Total energy in the final basis set =     -369.3677963196
 
 Components of the MP2 correlation energy:
        aaaa  correlation energy =        -0.0422318622 au
        abab  correlation energy =        -0.3378926706 au
        bbbb  correlation energy =        -0.0422318622 au
        non-Brillouin singles    =        -0.0000000000 au

 Total  MP2   correlation energy =                    -0.42235640 au
        MP2         total energy =                  -369.79015271 au
  Entering Z-vector solver.
   1         0           1      0.000223    0.000223
   2         0           1      0.000053    0.000053
   3         0           1      0.000008    0.000008
   4         0           1      0.000002    0.000002
   5         1           0      0.000000    0.000000    Roots Converged
 
 --------------------------------------------------------------
 
                    Orbital Energies (a.u.)
 --------------------------------------------------------------
 
 Alpha MOs
 -- Occupied --
-68.760 -11.204 -11.204  -6.108  -4.215  -4.215  -4.214  -0.958
 -0.927  -0.673  -0.570  -0.566  -0.545  -0.545  -0.456  -0.448
 -0.440
 -- Virtual --
  0.058   0.070   0.078   0.083   0.117   0.119   0.125   0.129
  0.136   0.153   0.191   0.192   0.217   0.221   0.230   0.271
  0.273   0.279   0.304   0.324   0.374   0.382   0.387   0.438
  0.472   0.483   0.518   0.519   0.586   0.629   0.641   0.677
  0.677   0.740   0.819   0.824   0.839   0.874   0.884   0.897
  0.921   0.950   1.069   1.097   1.098   1.122   1.127   1.309
  1.317   1.350   1.390   1.483   1.552   1.593   1.697   1.713
  1.725   1.726   1.807   1.837   1.842   1.863   1.885   1.911
  1.929   2.013   2.015   2.043   2.054   2.084   2.250   2.348
  2.352   2.413   2.477   2.492   2.522   2.550   2.772   2.779
  2.787   2.800   2.838   2.884   2.889   2.902   2.912   2.949
  3.032   3.080   3.115   3.218   3.576   3.666   4.139   4.145
  4.165   4.166   6.229  12.338  12.358  12.393  25.100  25.108
144.005
 --------------------------------------------------------------
 
          Ground-State Mulliken Net Atomic Charges

     Atom                 Charge (a.u.)
  ----------------------------------------
      1 Si                    0.896709
      2 C                    -0.751142
      3 H                    -0.176124
      4 H                    -0.176123
      5 C                    -0.751142
      6 H                     0.158433
      7 H                     0.162050
      8 H                     0.158428
      9 H                     0.162050
     10 H                     0.158429
     11 H                     0.158432
  ----------------------------------------
  Sum of atomic charges =     0.000000

 -----------------------------------------------------------------
                    Cartesian Multipole Moments
 -----------------------------------------------------------------
    Charge (ESU x 10^10)
                 0.0000
    Dipole Moment (Debye)
         X       0.0001      Y       0.6187      Z       0.0001
       Tot       0.6187
    Quadrupole Moments (Debye-Ang)
        XX     -29.6916     XY      -0.0001     YY     -30.7752
        XZ      -0.0000     YZ      -0.0001     ZZ     -30.1479
    Octopole Moments (Debye-Ang^2)
       XXX      -0.0082    XXY      -3.0942    XYY      -0.0008
       YYY       4.8963    XXZ       0.0013    XYZ       0.0005
       YYZ       0.0009    XZZ      -0.0016    YZZ       5.1721
       ZZZ       0.0085
    Hexadecapole Moments (Debye-Ang^3)
      XXXX    -302.1432   XXXY       0.0112   XXYY     -72.6175
      XYYY       0.0119   YYYY    -136.5002   XXXZ       0.0079
      XXYZ      -0.0007   XYYZ       0.0026   YYYZ      -0.0055
      XXZZ     -62.2983   XYZZ       0.0043   YYZZ     -35.1361
      XZZZ       0.0071   YZZZ      -0.0055   ZZZZ     -73.5833
 -----------------------------------------------------------------
 DrvMan is completing analytic gradient of the MP2 energy
 MP2 relaxed dipole moment
            1
    1   0.0000346
    2   0.2434042
    3   0.0000396
	Magnitude:	 0.243 au	 0.619 Debye
 MP2 energy read as -369.790153
 Full Analytical Gradient of MP2 Energy (in au.)
             1             2             3             4             5
    1   -0.00000004   -0.00000728    0.00000002   -0.00000004    0.00000752
    2    0.00001936    0.00002545   -0.00001021   -0.00001000    0.00002531
    3    0.00000007    0.00000005   -0.00002520    0.00002528    0.00000039
             6             7             8             9            10
    1   -0.00000461    0.00000574   -0.00000432   -0.00000577    0.00000420
    2   -0.00000671   -0.00001184   -0.00000646   -0.00001180   -0.00000656
    3    0.00000033   -0.00000027   -0.00000018   -0.00000026   -0.00000034
            11
    1    0.00000458
    2   -0.00000654
    3    0.00000014
 Gradient time:  CPU 0.11 s  wall 0.10 s
 Geometry Optimization Parameters
   NAtoms,    NIC,     NZ,  NCons,   NDum,   NFix, NCnnct, MaxDiis
       11      68       0       0       0       0       0       0

 Cartesian Hessian Update
 Hessian Updated using BFGS Update


** GEOMETRY OPTIMIZATION IN DELOCALIZED INTERNAL COORDINATES **
   Searching for a Minimum

   Optimization Cycle:   7

                       Coordinates (Angstroms)
     ATOM                X               Y               Z
      1  Si       -0.0000027163   -0.5624381279   -0.0001470638
      2  C        -1.5456226600    0.5045111070    0.0001143909
      3  H        -0.0002017409   -1.4345863842   -1.1979070528
      4  H        -0.0000529144   -1.4349629375    1.1973383070
      5  C         1.5459209221    0.5040712707   -0.0000864306
      6  H        -1.5755441183    1.1480747943    0.8845239632
      7  H        -2.4530198009   -0.1062353642   -0.0000484974
      8  H        -1.5755266097    1.1485193868   -0.8839724057
      9  H         2.4531451987   -0.1069316875   -0.0002999948
     10  H         1.5759220177    1.1480175784   -0.8842153465
     11  H         1.5761079626    1.1476807185    0.8842806340
   Point Group: c1    Number of degrees of freedom:    27


   Energy is   -369.790152715

 Hessian Updated using BFGS Update

 26 Hessian modes will be used to form the next step
  Hessian Eigenvalues:
     0.021804    0.021845    0.044550    0.051619    0.063836    0.069527
     0.069584    0.069677    0.089758    0.120035    0.124591    0.160000
     0.160000    0.160000    0.169705    0.200941    0.235126    0.302630
     0.311661    0.318029    0.346619    0.346879    0.347092    0.347300
     0.347794    0.348996

 Minimum Search - Taking Simple RFO Step
 Searching for Lamda that Minimizes Along All modes
 Value Taken    Lamda =   0.00000000
 Step Taken.  Stepsize is  0.000892

                             Maximum     Tolerance    Cnvgd?
         Gradient           0.000058      0.000020      NO
         Displacement       0.000632      0.000120      NO
         Energy change     -0.000000      0.000000      NO


 New Cartesian Coordinates Obtained by Inverse Iteration

 Displacement from previous Coordinates is:  0.002661
 ----------------------------------------------------------------
             Standard Nuclear Orientation (Angstroms)
    I     Atom           X                Y                Z
 ----------------------------------------------------------------
    1      Si     -0.0000028109    -0.5626898019    -0.0001524266
    2      C      -1.5454060237     0.5044966650     0.0001139409
    3      H      -0.0002041553    -1.4349172633    -1.1978135748
    4      H      -0.0000500892    -1.4352928306     1.1972349502
[...]
    11    1.204850600082610e-03   1.706547222916316e-02  -1.966827996927217e-02


    11 Order 1, Length 33
    Atom      X          Y          Z
     1    6.119256139108299e-04  -1.023902415907235e-02  -1.675460228074753e-02
     2    1.227243410462334e-03   1.061429007294785e-03   7.392387716891810e-04
     3   -3.449355524269708e-03  -2.670687800277086e-03   1.749514920072286e-04
     4    5.755457888804141e-04   1.174348498767012e-03   8.024127938757624e-04
     5   -3.907516677193024e-02  -8.603973193880402e-03  -1.655487373011398e-02
     6   -7.107945968930986e-04   4.193637683087443e-04   2.048963359862285e-04
     7    4.036589279890396e-04  -8.404750769964607e-05   2.995144154112488e-04
     8    1.282493568433832e-06  -9.109875325664957e-05  -1.253543151047520e-05
     9    1.138722986868576e-03   1.603543107869013e-02   2.334700780570111e-02
    10   -1.581469223961396e-03   5.893530122223184e-04   1.204850600082610e-03
    11    4.085928057442655e-02   2.410188974302235e-03   6.549014171416749e-03

Order 1, Length 33
    Atom      X          Y          Z
     1    2.378273554544349e-03  -7.718907874301273e-03  -1.123120313725537e-02
     2    5.353316106715823e-04   6.030061413597057e-04   6.909577471339083e-04
     3   -2.566618308988864e-03  -1.080490737391379e-03   2.021824575566500e-04
     4    3.884452494756439e-04   6.949602811808494e-04   8.695221281290824e-04
     5   -8.563287914096753e-04  -1.418836386022277e-01  -1.388971499963124e-01
     6   -4.183987655535611e-04   3.441234630496174e-04  -1.312140287605909e-05
     7    2.053118145091751e-04  -8.615284648937921e-05   1.914199310056801e-04
     8    9.066512730029754e-05   4.379461370862734e-06   8.181783228899665e-05
     9   -2.755036044668092e-03  -1.066377542396625e-02  -1.396270183911854e-02
    10    5.899295149064615e-04   1.188749823418390e-02   1.706547222916316e-02
    11    2.410188974302235e-03   1.479002086223315e-01   1.450033909989210e-01

Order 1, Length 33
    Atom      X          Y          Z
     1    1.542864571341388e-03   1.603774680569733e-03  -5.469022557487725e-04
     2   -4.716567592658742e-04   9.961111784698538e-05   1.065816080469787e-04
     3    4.725262891224367e-04   2.450631600211823e-04   8.315582707322268e-04
     4   -3.746776269376658e-04  -1.959714070285632e-04   6.015070267655767e-05
     5   -5.383569132936358e-03  -1.312400784561841e-01  -2.244428277651995e-01
     6   -2.048674722316639e-04  -1.418950120981806e-05   5.389695189391092e-05
     7   -5.325569818448208e-05   1.427695594976653e-04   4.598412653563172e-05
     8   -1.329781283126986e-05  -8.256858659756016e-05  -4.613805983493061e-05
     9   -8.546963511961085e-04   1.503348050764782e-03   1.415139758512976e-04
    10   -1.207219403221221e-03  -1.706366521168599e-02  -1.966827996927217e-02
    11    6.549014171416749e-03   1.450033909989210e-01   2.434657259744726e-01




 # Finishing finite difference calculation for IDERIV #
 ######################################################
 ######################################################
 Requested basis set is 6-311+G(d,p)
 There are 57 shells and 122 basis functions
 **********************************************************************
 **                                                                  **
 **                       VIBRATIONAL ANALYSIS                       **
 **                       --------------------                       **
 **                                                                  **
 **        VIBRATIONAL FREQUENCIES (CM**-1) AND NORMAL MODES         **
 **     FORCE CONSTANTS (mDYN/ANGSTROM) AND REDUCED MASSES (AMU)     **
 **                  INFRARED INTENSITIES (KM/MOL)                   **
 **                                                                  **
 **********************************************************************
 

 Mode:                 1                      2                      3
 Frequency:       150.71                 171.55                 206.94
 Force Cnst:      0.0137                 0.0191                 0.0589
 Red. Mass:       1.0232                 1.0998                 2.3359
 IR Active:          YES                    YES                    YES
 IR Intens:        0.000                  0.015                  1.528
 Raman Active:       YES                    YES                    YES
               X      Y      Z        X      Y      Z        X      Y      Z
 Si        -0.000  0.000 -0.000   -0.000 -0.000 -0.045    0.000  0.129 -0.000
 C         -0.000 -0.000  0.026    0.000  0.000  0.042   -0.169 -0.108  0.000
 H         -0.006 -0.000 -0.000   -0.000  0.051 -0.081    0.000  0.123  0.002
 H          0.006  0.000 -0.000    0.000 -0.051 -0.081   -0.000  0.123 -0.002
 C          0.000 -0.000 -0.026   -0.000  0.000  0.042    0.169 -0.108  0.000
 H         -0.187 -0.299  0.237    0.246  0.245 -0.128   -0.362 -0.124  0.004
 H         -0.000  0.000 -0.371   -0.000  0.000  0.464    0.009 -0.377  0.000
 H          0.187  0.299  0.238   -0.246 -0.245 -0.128   -0.363 -0.125 -0.004
 H         -0.000 -0.000  0.372    0.000  0.000  0.463   -0.009 -0.377  0.000
 H          0.187 -0.299 -0.238    0.245 -0.245 -0.128    0.363 -0.125 -0.004
 H         -0.187  0.299 -0.238   -0.246  0.245 -0.128    0.363 -0.124  0.004
 TransDip  -0.000  0.000 -0.000    0.000 -0.000 -0.004   -0.000  0.040 -0.000

 Mode:                 4                      5                      6
 Frequency:       470.63                 587.78                 648.83
 Force Cnst:      0.1409                 0.2096                 0.2712
 Red. Mass:       1.0799                 1.0295                 1.0932
 IR Active:          YES                    YES                    YES
 IR Intens:       16.867                  0.000                 16.488
 Raman Active:       YES                    YES                    YES
               X      Y      Z        X      Y      Z        X      Y      Z
 Si         0.000 -0.000  0.052   -0.000  0.000 -0.000   -0.012  0.000  0.000
 C          0.000  0.000 -0.003   -0.000 -0.000  0.031   -0.037 -0.048 -0.000
 H         -0.000  0.485 -0.308   -0.512 -0.000  0.000    0.363  0.000 -0.000
 H          0.000 -0.485 -0.308    0.512  0.000  0.000    0.363 -0.000 -0.000
 C         -0.000 -0.000 -0.003    0.000  0.000 -0.031   -0.037  0.048  0.000
 H         -0.177  0.170 -0.137   -0.243  0.181 -0.116    0.274  0.001 -0.021
 H          0.000 -0.000 -0.103   -0.000  0.000 -0.161   -0.297  0.354  0.000
 H          0.177 -0.170 -0.137    0.243 -0.181 -0.116    0.274  0.001  0.021
 H         -0.000  0.000 -0.103   -0.000 -0.000  0.161   -0.297 -0.354 -0.000
 H         -0.176 -0.170 -0.137    0.244  0.181  0.116    0.274 -0.001 -0.021
 H          0.176  0.170 -0.137   -0.243 -0.181  0.116    0.274 -0.001  0.021
 TransDip   0.000  0.000  0.132    0.000  0.000 -0.000   -0.130  0.000  0.000

 Mode:                 7                      8                      9
 Frequency:       673.16                 743.93                 874.32
 Force Cnst:      0.9097                 1.1175                 0.6473
 Red. Mass:       3.4072                 3.4270                 1.4372
 IR Active:          YES                    YES                    YES
 IR Intens:        5.176                 14.630                 31.111
 Raman Active:       YES                    YES                    YES
               X      Y      Z        X      Y      Z        X      Y      Z
 Si        -0.000  0.148 -0.000    0.195  0.000 -0.000    0.000 -0.065 -0.000
 C          0.257 -0.128 -0.000   -0.190  0.165  0.000    0.051  0.109  0.000
 H         -0.000  0.156 -0.013    0.347 -0.000  0.000   -0.000 -0.103  0.032
 H         -0.000  0.156  0.013    0.347  0.000  0.000    0.000 -0.103 -0.032
 C         -0.257 -0.128 -0.000   -0.190 -0.165  0.000   -0.051  0.109  0.000
 H          0.147 -0.167  0.016   -0.312  0.179 -0.006   -0.331  0.032  0.036
 H          0.406 -0.344 -0.000   -0.162  0.110 -0.000    0.347 -0.357  0.000
 H          0.147 -0.167 -0.016   -0.312  0.179  0.006   -0.331  0.032 -0.036
 H         -0.406 -0.344 -0.000   -0.162 -0.110  0.000   -0.347 -0.357  0.000
 H         -0.147 -0.167 -0.016   -0.312 -0.179 -0.006    0.331  0.032 -0.036
 H         -0.147 -0.167  0.016   -0.312 -0.179  0.006    0.331  0.032  0.036
 TransDip  -0.000  0.073  0.000    0.123 -0.000  0.000   -0.000 -0.179 -0.000

 Mode:                10                     11                     12
 Frequency:       902.06                 909.18                 954.25
 Force Cnst:      0.6855                 0.5704                 0.6782
 Red. Mass:       1.4299                 1.1712                 1.2641
 IR Active:          YES                    YES                    YES
 IR Intens:       76.367                  0.000                274.761
 Raman Active:       YES                    YES                    YES
               X      Y      Z        X      Y      Z        X      Y      Z
 Si        -0.000  0.000  0.076   -0.000  0.000  0.000   -0.080 -0.000 -0.000
 C          0.000  0.000 -0.110    0.000  0.000 -0.086    0.043  0.045  0.000
 H          0.000  0.291 -0.148   -0.513  0.000 -0.000    0.620  0.000 -0.000
 H         -0.000 -0.291 -0.148    0.513 -0.000 -0.000    0.620  0.000  0.000
 C         -0.000 -0.000 -0.110    0.000 -0.000  0.086    0.043 -0.045 -0.000
 H          0.303 -0.264  0.107    0.245 -0.205  0.079   -0.112 -0.017  0.032
 H         -0.000  0.000  0.179   -0.000 -0.000  0.119    0.203 -0.201 -0.000
 H         -0.303  0.264  0.107   -0.245  0.205  0.079   -0.112 -0.017 -0.032
 H          0.000  0.000  0.179    0.000  0.000 -0.119    0.203  0.201  0.000
 H          0.303  0.265  0.107   -0.244 -0.204 -0.079   -0.112  0.017  0.032
 H         -0.303 -0.265  0.107    0.244  0.204 -0.079   -0.112  0.017 -0.032
 TransDip  -0.000 -0.000  0.280   -0.000  0.000  0.000   -0.531 -0.000 -0.000

 Mode:                13                     14                     15
 Frequency:      1007.19                1310.93                1319.31
 Force Cnst:      0.6345                 1.2779                 1.2732
 Red. Mass:       1.0615                 1.2621                 1.2415
 IR Active:          YES                    YES                    YES
 IR Intens:      126.860                 37.913                 16.380
 Raman Active:       YES                    YES                    YES
               X      Y      Z        X      Y      Z        X      Y      Z
 Si         0.000 -0.044  0.000    0.013  0.000  0.000   -0.000  0.006 -0.000
 C          0.003  0.006 -0.000   -0.089  0.059 -0.000    0.083 -0.060  0.000
 H         -0.000  0.562 -0.426   -0.028  0.000  0.000    0.000 -0.005  0.020
 H         -0.000  0.562  0.426   -0.028 -0.000 -0.000    0.000 -0.005 -0.020
 C         -0.003  0.006 -0.000   -0.089 -0.059 -0.000   -0.083 -0.060 -0.000
 H         -0.031 -0.006  0.007    0.355 -0.135  0.140   -0.345  0.145 -0.149
 H          0.004 -0.002  0.000    0.199 -0.347 -0.000   -0.207  0.349  0.000
 H         -0.031 -0.006 -0.007    0.355 -0.135 -0.140   -0.345  0.145  0.149
 H         -0.004 -0.002  0.000    0.199  0.347  0.000    0.206  0.348  0.000
 H          0.031 -0.006 -0.007    0.355  0.135  0.140    0.345  0.145  0.149
 H          0.031 -0.006  0.007    0.355  0.135 -0.140    0.345  0.145 -0.149
 TransDip   0.000 -0.361  0.000    0.197  0.000 -0.000   -0.000  0.130 -0.000

 Mode:                16                     17                     18
 Frequency:      1468.28                1468.63                1476.11
 Force Cnst:      1.3361                 1.3363                 1.3450
 Red. Mass:       1.0519                 1.0515                 1.0477
 IR Active:          YES                    YES                    YES
 IR Intens:        0.001                  1.881                  3.512
 Raman Active:       YES                    YES                    YES
               X      Y      Z        X      Y      Z        X      Y      Z
 Si         0.000  0.000 -0.000   -0.005 -0.000 -0.000    0.000 -0.007 -0.000
 C          0.000  0.001  0.045   -0.024 -0.037  0.001   -0.025 -0.034 -0.000
 H         -0.009  0.000  0.000    0.023  0.000 -0.000   -0.000  0.014 -0.013
 H          0.009 -0.000 -0.000    0.023  0.000  0.000   -0.000  0.014  0.013
 C          0.000 -0.001 -0.045   -0.024  0.037 -0.001    0.025 -0.034 -0.000
 H          0.316  0.106 -0.036    0.114  0.362 -0.278    0.112  0.357 -0.272
 H         -0.002  0.004 -0.516    0.114 -0.222 -0.010    0.124 -0.233  0.000
 H         -0.320 -0.120 -0.046    0.102  0.358  0.276    0.112  0.357  0.272
 H         -0.002 -0.004  0.516    0.114  0.221  0.010   -0.124 -0.233  0.000
 H         -0.320  0.120  0.046    0.101 -0.357 -0.276   -0.112  0.357  0.272
 H          0.316 -0.106  0.036    0.114 -0.362  0.277   -0.112  0.357 -0.272
 TransDip  -0.001  0.000  0.000    0.044  0.000  0.000   -0.000  0.060  0.000

 Mode:                19                     20                     21
 Frequency:      1479.24                2283.60                2287.61
 Force Cnst:      1.3495                 3.2284                 3.1753
 Red. Mass:       1.0468                 1.0507                 1.0298
 IR Active:          YES                    YES                    YES
 IR Intens:       11.016                178.573                126.492
 Raman Active:       YES                    YES                    YES
               X      Y      Z        X      Y      Z        X      Y      Z
 Si        -0.000  0.000 -0.008    0.000  0.000 -0.040    0.000 -0.029 -0.000
 C          0.000  0.000 -0.041    0.000  0.000 -0.000   -0.000  0.000  0.000
 H         -0.000 -0.017  0.008    0.000  0.422  0.567    0.000  0.407  0.578
 H          0.000  0.017  0.008   -0.000 -0.422  0.567   -0.000  0.407 -0.578
 C         -0.000  0.000 -0.041   -0.000 -0.000 -0.000    0.000  0.000  0.000
 H         -0.324 -0.106  0.038    0.003 -0.004 -0.004    0.005 -0.004  0.001
 H         -0.000  0.000  0.513    0.000  0.000 -0.001   -0.001 -0.005 -0.000
 H          0.323  0.106  0.038   -0.003  0.004 -0.004    0.005 -0.004 -0.001
 H          0.000  0.000  0.513   -0.000  0.000 -0.001    0.001 -0.005 -0.000
 H         -0.323  0.106  0.038    0.003  0.004 -0.004   -0.005 -0.004 -0.001
 H          0.323 -0.106  0.038   -0.003 -0.004 -0.004   -0.005 -0.004  0.001
 TransDip  -0.000 -0.000  0.106    0.000  0.000 -0.428   -0.000 -0.360 -0.000

 Mode:                22                     23                     24
 Frequency:      3073.72                3074.74                3166.53
 Force Cnst:      5.7641                 5.7691                 6.5031
 Red. Mass:       1.0355                 1.0357                 1.1008
 IR Active:          YES                    YES                    YES
 IR Intens:        4.192                  7.165                  0.000
 Raman Active:       YES                    YES                    YES
               X      Y      Z        X      Y      Z        X      Y      Z
 Si        -0.000  0.001  0.000   -0.001 -0.000  0.000    0.000 -0.000 -0.000
 C          0.028 -0.021 -0.000    0.028 -0.022  0.000    0.000  0.000  0.065
 H          0.000 -0.001  0.000    0.001  0.000  0.000    0.001  0.000  0.000
 H          0.000 -0.001 -0.000    0.001  0.000 -0.000   -0.001 -0.000  0.000
 C         -0.028 -0.021 -0.000    0.028  0.022 -0.000    0.000 -0.000 -0.065
 H         -0.002  0.238  0.337   -0.001  0.239  0.339    0.012 -0.298 -0.396
 H         -0.325 -0.232 -0.000   -0.317 -0.228 -0.000   -0.000 -0.000  0.015
 H         -0.002  0.238 -0.337   -0.001  0.240 -0.339   -0.012  0.298 -0.396
 H          0.324 -0.231 -0.000   -0.318  0.229  0.000   -0.000  0.000 -0.015
 H          0.002  0.238 -0.336   -0.001 -0.240  0.340   -0.012 -0.300  0.399
 H          0.002  0.238  0.336   -0.001 -0.240 -0.340    0.012  0.300  0.400
 TransDip   0.000 -0.066 -0.000    0.086  0.000  0.000    0.000 -0.000 -0.001

 Mode:                25                     26                     27
 Frequency:      3167.40                3169.98                3170.24
 Force Cnst:      6.5036                 6.5155                 6.5177
 Red. Mass:       1.1003                 1.1005                 1.1007
 IR Active:          YES                    YES                    YES
 IR Intens:       18.165                 10.166                  6.420
 Raman Active:       YES                    YES                    YES
               X      Y      Z        X      Y      Z        X      Y      Z
 Si        -0.000 -0.000 -0.001   -0.000  0.001 -0.000   -0.000 -0.000 -0.000
 C         -0.000 -0.000 -0.065    0.038  0.052 -0.000   -0.038 -0.053  0.000
 H         -0.000  0.003  0.006    0.000 -0.003 -0.002    0.001  0.000  0.000
 H          0.000 -0.003  0.006    0.000 -0.003  0.002    0.001  0.000 -0.000
 C          0.000 -0.000 -0.065   -0.038  0.053 -0.000   -0.038  0.052 -0.000
 H         -0.014  0.300  0.399    0.016 -0.156 -0.230   -0.015  0.155  0.229
 H          0.001  0.000 -0.014   -0.480 -0.319 -0.000    0.493  0.327  0.000
 H          0.013 -0.300  0.399    0.016 -0.156  0.230   -0.015  0.156 -0.230
 H         -0.000  0.000 -0.014    0.489 -0.324 -0.000    0.485 -0.321 -0.000
 H         -0.013 -0.298  0.396   -0.016 -0.159  0.235   -0.015 -0.153  0.226
 H          0.013  0.298  0.396   -0.016 -0.158 -0.233   -0.015 -0.153 -0.225
 TransDip  -0.000 -0.000 -0.137   -0.001  0.102 -0.000   -0.081 -0.001 -0.000

 STANDARD THERMODYNAMIC QUANTITIES AT   298.15 K  AND     1.00 ATM

   This Molecule has  0 Imaginary Frequencies
   Zero point vibrational energy:       57.493 kcal/mol

   Atom    1 Element Si Has Mass   27.97693
   Atom    2 Element C  Has Mass   12.00000
   Atom    3 Element H  Has Mass    1.00783
   Atom    4 Element H  Has Mass    1.00783
   Atom    5 Element C  Has Mass   12.00000
   Atom    6 Element H  Has Mass    1.00783
   Atom    7 Element H  Has Mass    1.00783
   Atom    8 Element H  Has Mass    1.00783
   Atom    9 Element H  Has Mass    1.00783
   Atom   10 Element H  Has Mass    1.00783
   Atom   11 Element H  Has Mass    1.00783
   Molecular Mass:    60.039570 amu
   Principal axes and moments of inertia in amu*Bohr^2:
                             1           2           3
    Eigenvalues --      108.64174   305.30433   370.79149
          X               1.00000     0.00000     0.00000
          Y              -0.00000     1.00000     0.00000
          Z              -0.00000    -0.00000     1.00000
   Rotational Symmetry Number is   1
   The Molecule is an Asymmetric Top
   Translational Enthalpy:        0.889 kcal/mol
   Rotational Enthalpy:           0.889 kcal/mol
   Vibrational Enthalpy:         59.285 kcal/mol
   gas constant (RT):             0.592 kcal/mol
   Translational Entropy:        38.197  cal/mol.K
   Rotational Entropy:           24.023  cal/mol.K
   Vibrational Entropy:          10.065  cal/mol.K

   Total Enthalpy:               61.655 kcal/mol
   Total Entropy:                72.286  cal/mol.K
Archival summary:
1\1\mm2.localdomain\FREQ\MP2\6-311+G**\i128\xuedong\WedMay1509:37:572019WedMay1509:37:572019\0\\#,FREQ,MP2,6-311+G**,\\0,1\Si\H,1,1.48158\H,1,1.48158,2,107.852\C,1,1.87808,2,109.547,3,-119.166,0\H,4,1.09378,1,111.466,2,59.0601,0\H,4,1.0942,1,110.889,2,-61.0641,0\H,4,1.0942,1,110.889,2,179.184,0\C,1,1.87808,2,109.547,3,119.166,0\H,8,1.09378,1,111.466,2,-59.0634,0\H,8,1.0942,1,110.889,2,61.0608,0\H,8,1.0942,1,110.889,2,-179.187,0\\HF=-369.367802\MP2=-369.790152\\@

 Total job time:  591.74s(wall), 1579.74s(cpu) 
 Wed May 15 09:37:57 2019

        *************************************************************
        *                                                           *
        *  Thank you very much for using Q-Chem.  Have a nice day.  *
        *                                                           *
        *************************************************************


