
Running Job 1 of 2 21.freq.qcinp
qchem 21.freq.qcinp_15568.0 /scratch/xuedong/qchem15568/ 1
/home/qwang/software/qchem5.1/exe/qcprog.exe_s 21.freq.qcinp_15568.0 /scratch/xuedong/qchem15568/
Check license passed

                  Welcome to Q-Chem
     A Quantum Leap Into The Future Of Chemistry


 Q-Chem 5.1, Q-Chem, Inc., Pleasanton, CA (2018)

 Yihan Shao,  Zhengting Gan,  E. Epifanovsky,  A. T. B. Gilbert,  M. Wormit,  
 J. Kussmann,  A. W. Lange,  A. Behn,  Jia Deng,  Xintian Feng,  D. Ghosh,  
 M. Goldey,  P. R. Horn,  L. D. Jacobson,  I. Kaliman,  T. Kus,  A. Landau,  
 Jie Liu,  E. I. Proynov,  R. M. Richard,  R. P. Steele,  E. J. Sundstrom,  
 H. L. Woodcock III,  P. M. Zimmerman,  D. Zuev,  B. Albrecht,  E. Alguire,  
 S. A. Baeppler,  D. Barton,  Z. Benda,  Y. A. Bernard,  E. J. Berquist,  
 K. B. Bravaya,  H. Burton,  D. Casanova,  Chun-Min Chang,  Yunqing Chen,  
 A. Chien,  K. D. Closser,  M. P. Coons,  S. Coriani,  S. Dasgupta,  
 A. L. Dempwolff,  M. Diedenhofen,  Hainam Do,  R. G. Edgar,  Po-Tung Fang,  
 S. Faraji,  S. Fatehi,  Qingguo Feng,  K. D. Fenk,  J. Fosso-Tande,  
 Qinghui Ge,  A. Ghysels,  G. Gidofalvi,  J. Gomes,  J. Gonthier,  A. Gunina,  
 D. Hait,  M. W. D. Hanson-Heine,  P. H. P. Harbach,  A. W. Hauser,  
 J. E. Herr,  E. G. Hohenstein,  Z. C. Holden,  Kerwin Hui,  B. C. Huynh,  
 T.-C. Jagau,  Hyunjun Ji,  B. Kaduk,  K. Khistyaev,  Jaehoon Kim,  
 P. Klunzinger,  K. Koh,  D. Kosenkov,  L. Koulias,  T. Kowalczyk,  
 C. M. Krauter,  A. Kunitsa,  Ka Un Lao,  A. Laurent,  K. V. Lawler,  
 Joonho Lee,  D. Lefrancois,  S. Lehtola,  D. S. Levine,  Yi-Pei Li,  
 You-Sheng Lin,  Fenglai Liu,  E. Livshits,  A. Luenser,  P. Manohar,  
 E. Mansoor,  S. F. Manzer,  Shan-Ping Mao,  Yuezhi Mao,  N. Mardirossian,  
 A. V. Marenich,  T. Markovich,  L. A. Martinez-Martinez,  S. A. Maurer,  
 N. J. Mayhall,  S. C. McKenzie,  J.-M. Mewes,  A. F. Morrison,  
 J. W. Mullinax,  K. Nanda,  T. S. Nguyen-Beck,  R. Olivares-Amaya,  
 J. A. Parkhill,  T. M. Perrine,  F. Plasser,  P. Pokhilko,  S. Prager,  
 A. Prociuk,  E. Ramos,  D. R. Rehn,  F. Rob,  M. Schneider,  N. Sergueev,  
 S. M. Sharada,  S. Sharma,  D. W. Small,  T. Stauch,  T. Stein,  
 Yu-Chuan Su,  A. J. W. Thom,  A. Tkatchenko,  T. Tsuchimochi,  N. M. Tubman,  
 L. Vogt,  M. L. Vidal,  O. Vydrov,  M. A. Watson,  J. Wenzel,  
 M. de Wergifosse,  T. A. Wesolowski,  A. White,  J. Witte,  A. Yamada,  
 Jun Yang,  K. Yao,  S. Yeganeh,  S. R. Yost,  Zhi-Qiang You,  A. Zech,  
 Igor Ying Zhang,  Xing Zhang,  Yan Zhao,  Ying Zhu,  B. R. Brooks,  
 G. K. L. Chan,  C. J. Cramer,  M. S. Gordon,  W. J. Hehre,  A. Klamt,  
 M. W. Schmidt,  C. D. Sherrill,  D. G. Truhlar,  A. Aspuru-Guzik,  R. Baer,  
 A. T. Bell,  N. A. Besley,  Jeng-Da Chai,  R. A. DiStasio Jr.,  A. Dreuw,  
 B. D. Dunietz,  T. R. Furlani,  Chao-Ping Hsu,  Yousung Jung,  Jing Kong,  
 D. S. Lambrecht,  WanZhen Liang,  C. Ochsenfeld,  V. A. Rassolov,  
 L. V. Slipchenko,  J. E. Subotnik,  T. Van Voorhis,  J. M. Herbert,  
 A. I. Krylov,  P. M. W. Gill,  M. Head-Gordon

 Contributors to earlier versions of Q-Chem not listed above: 
 R. D. Adamson,  B. Austin,  J. Baker,  G. J. O. Beran,  K. Brandhorst,  
 S. T. Brown,  E. F. C. Byrd,  A. K. Chakraborty,  C.-L. Cheng,  
 Siu Hung Chien,  D. M. Chipman,  D. L. Crittenden,  H. Dachsel,  
 R. J. Doerksen,  A. D. Dutoi,  L. Fusti-Molnar,  W. A. Goddard III,  
 A. Golubeva-Zadorozhnaya,  S. R. Gwaltney,  G. Hawkins,  A. Heyden,  
 S. Hirata,  G. Kedziora,  F. J. Keil,  C. Kelley,  Jihan Kim,  R. A. King,  
 R. Z. Khaliullin,  P. P. Korambath,  W. Kurlancheek,  A. M. Lee,  M. S. Lee,  
 S. V. Levchenko,  Ching Yeh Lin,  D. Liotard,  R. C. Lochan,  I. Lotan,  
 P. E. Maslen,  N. Nair,  D. P. O'Neill,  D. Neuhauser,  E. Neuscamman,  
 C. M. Oana,  R. Olson,  B. Peters,  R. Peverati,  P. A. Pieniazek,  
 Y. M. Rhee,  J. Ritchie,  M. A. Rohrdanz,  E. Rosta,  N. J. Russ,  
 H. F. Schaefer III,  N. E. Schultz,  N. Shenvi,  A. C. Simmonett,  A. Sodt,  
 D. Stuck,  K. S. Thanthiriwatte,  V. Vanovschi,  Tao Wang,  A. Warshel,  
 C. F. Williams,  Q. Wu,  X. Xu,  W. Zhang

 Please cite Q-Chem as follows:
 Y. Shao et al., Mol. Phys. 113, 184-215 (2015)
 DOI: 10.1080/00268976.2014.952696

 Q-Chem 5.1.0 for Intel X86 EM64T Linux

 Parts of Q-Chem use Armadillo 8.300.2 (Tropical Shenanigans).
 http://arma.sourceforge.net/

 Q-Chem begins on Wed May 15 09:26:47 2019  

Host: 
0

     Scratch files written to /scratch/xuedong/qchem15568//
 May118 |scratch|qcdevops|jenkins|workspace|build_RNUM 6581   
Processing $rem in /home/qwang/software/qchem5.1/config/preferences.
 MEM_TOTAL  2000 
Core orbitals will be frozen

Checking the input file for inconsistencies... 	...done.

--------------------------------------------------------------
User input:
--------------------------------------------------------------
$molecule
0 1
Si        0.007   0.010   0.018
C       -0.592  -0.837   1.423
H       -0.424  -0.600  -1.040
C        1.753  -0.008  -0.013
C       -0.592   1.651  -0.013
H       -0.242  -0.343   2.329
H       -1.682  -0.838   1.412
H       -0.230  -1.865   1.412
H        2.109   0.502  -0.909
H        2.109  -1.038  -0.020
H        2.144   0.501   0.868
H       -0.230   2.155  -0.909
H       -1.682   1.642  -0.020
H       -0.242   2.188   0.868
$end

$rem
JOBTYPE  =  opt
METHOD  =  MP2
BASIS  =  6-311G+(d,p)
SCF_MAX_CYCLES  =  200
GEOM_OPT_MAX_CYCLES  =  300
GEOM_OPT_TOL_DISPLACEMENT = 120
GEOM_OPT_TOL_ENERGY = 10
GEOM_OPT_TOL_GRADIENT = 20
$end
--------------------------------------------------------------
 ----------------------------------------------------------------
             Standard Nuclear Orientation (Angstroms)
    I     Atom           X                Y                Z
 ----------------------------------------------------------------
    1      Si      0.0001342767    -0.0001200627    -0.3462102960
    2      C       0.6985814304    -1.5040305463     0.2021142710
    3      H       0.0000541520     0.0008591091    -1.6412871411
    4      C       0.9532404519     1.3566530737     0.2020198337
    5      C      -1.6521822252     0.1470752081     0.2022664400
    6      H       0.7111287449    -1.5298399077     1.2914023146
    7      H       0.1060365658    -2.3395725456    -0.1706888283
    8      H       1.7190979051    -1.5905290796    -0.1707303732
    9      H       0.5179941511     2.2847774547    -0.1705359221
   10      H       1.9730871366     1.2627082779    -0.1705014610
   11      H       0.9698593741     1.3809866775     1.2916320065
   12      H      -2.0793501282     1.0776600796    -0.1711172496
   13      H      -2.2373184819    -0.6934525632    -0.1710412437
   14      H      -1.6803072360     0.1498969614     1.2914087730
 ----------------------------------------------------------------
 Molecular Point Group                 C1    NOp =  1
 Largest Abelian Subgroup              C1    NOp =  1
 Nuclear Repulsion Energy =   185.9909243288 hartrees
 There are       21 alpha and       21 beta electrons
 Requested basis set is 6-311+G(d,p)
 There are 71 shells and 156 basis functions

 Total QAlloc Memory Limit   2000 MB
 Mega-Array Size       188 MB
 MEM_STATIC part       192 MB
 A cutoff of  1.0D-11 yielded   2475 shell pairs
 There are     12214 function pairs (     12868 Cartesian)
 
 -------------------------------------------------------
 OpenMP Integral Computing Module                       
 Release: version 1.0, May 2013, Q-Chem Inc. Pittsburgh 
 -------------------------------------------------------
 Integral Job Info:
 Integral job number is                      11
 Integral operator is                         1
 short-range coefficients                     0
 long-range coefficients              100000000
 Omega coefficients                           0
 if combine SR and LR in K                    0
 Integral screening is                        0
 Integral computing path is                   2
 max size of driver memory is            800000
 size of driver memory is                593474
 size of scratch memory is              4204008
 max col of scratch BK array               1296
 max len of scratch array in speh3          155
 max len of scratch index in speh4           18
 max int batch size is                      520
 min int batch size is                       52
 fixed nKL is                                52
 max L of basis functions is                  2
 order of int derivative is                   0
 number of shells is                         71
 number of basis is                         160
 number of cartesian basis is               160
 number of contracted shell pairs          2475
 number of primitive shell pairs           5739
 maxK2 (contraction) of shell pair           36
 max number of K2 of shell pair               1
 max number of CS2 of shell pair            339
 max number of PS2 of shell pair            756
 mem total for path MDJ                  515548
 -------------------------------------------------------
 Smallest overlap matrix eigenvalue = 2.92E-04

 Scale SEOQF with 1.000000e-01/1.000000e-01/1.000000e-01

 Standard Electronic Orientation quadrupole field applied
 Nucleus-field energy     =     0.0000000038 hartrees
 Guess from superposition of atomic densities
 Warning:  Energy on first SCF cycle will be non-variational
 SAD guess density has 42.000000 electrons

 -----------------------------------------------------------------------
  General SCF calculation program by
  Eric Jon Sundstrom, Paul Horn, Yuezhi Mao, Dmitri Zuev, Alec White,
  David Stuck, Shaama M.S., Shane Yost, Joonho Lee, David Small,
  Daniel Levine, Susi Lehtola, Hugh Burton, Evgeny Epifanovsky
 -----------------------------------------------------------------------
 Hartree-Fock
 using 4 threads for integral computing
 -------------------------------------------------------
 OpenMP Integral computing Module                
 Release: version 1.0, May 2013, Q-Chem Inc. Pittsburgh 
 -------------------------------------------------------
 A restricted SCF calculation will be
 performed using DIIS
 SCF converges when DIIS error is below 1.0e-08
 ---------------------------------------
  Cycle       Energy         DIIS error
 ---------------------------------------
    1    -409.9840447504      5.36e-02  
    2    -408.3196997508      3.82e-03  
    3    -408.3720072949      1.23e-03  
    4    -408.3778149989      4.04e-04  
    5    -408.3785889059      5.01e-05  
    6    -408.3786100134      9.96e-06  
    7    -408.3786106950      2.25e-06  
    8    -408.3786107386      2.97e-07  
    9    -408.3786107393      6.23e-08  
   10    -408.3786107393      1.77e-08  
   11    -408.3786107394      3.44e-09  Convergence criterion met
 ---------------------------------------
 SCF time:   CPU 15.23s  wall 4.00s 
 SCF   energy in the final basis set =     -408.3786107394
 Total energy in the final basis set =     -408.3786107394
 
 Components of the MP2 correlation energy:
        aaaa  correlation energy =        -0.0621653581 au
        abab  correlation energy =        -0.4544252975 au
        bbbb  correlation energy =        -0.0621653581 au
        non-Brillouin singles    =        -0.0000000000 au

 Total  MP2   correlation energy =                    -0.57875601 au
        MP2         total energy =                  -408.95736675 au
  Entering Z-vector solver.
   1         0           1      0.000189    0.000189
   2         0           1      0.000051    0.000051
   3         0           1      0.000008    0.000008
   4         0           1      0.000002    0.000002
   5         1           0      0.000000    0.000000    Roots Converged
 
 --------------------------------------------------------------
 
                    Orbital Energies (a.u.)
 --------------------------------------------------------------
 
 Alpha MOs
 -- Occupied --
-68.697 -11.182 -11.182 -11.182  -6.060  -4.167  -4.166  -4.166
 -0.992  -0.929  -0.929  -0.662  -0.590  -0.573  -0.573  -0.545
 -0.545  -0.528  -0.452  -0.436  -0.436
 -- Virtual --
  0.054   0.072   0.072   0.079   0.120   0.120   0.125   0.127
  0.127   0.158   0.161   0.161   0.162   0.189   0.189   0.204
  0.261   0.261   0.270   0.289   0.289   0.289   0.315   0.315
  0.352   0.361   0.384   0.385   0.411   0.484   0.484   0.485
  0.488   0.488   0.599   0.606   0.643   0.643   0.685   0.686
  0.696   0.696   0.830   0.841   0.841   0.865   0.865   0.865
  0.881   0.917   0.925   0.925   0.956   0.956   1.069   1.145
  1.145   1.231   1.231   1.247   1.317   1.354   1.354   1.428
  1.482   1.482   1.616   1.616   1.686   1.715   1.715   1.718
  1.829   1.839   1.839   1.854   1.854   1.854   1.920   1.920
  1.986   2.023   2.023   2.024   2.072   2.145   2.145   2.180
  2.180   2.326   2.334   2.335   2.471   2.513   2.513   2.566
  2.578   2.578   2.661   2.778   2.778   2.820   2.821   2.834
  2.881   2.882   2.909   2.909   2.942   2.961   2.961   2.992
  3.003   3.003   3.130   3.241   3.287   3.288   3.720   3.850
  3.851   4.152   4.167   4.168   4.207   4.208   4.224   6.387
 12.566  12.583  12.583  25.135  25.136  25.155 144.214
 --------------------------------------------------------------
 
          Ground-State Mulliken Net Atomic Charges

     Atom                 Charge (a.u.)
  ----------------------------------------
      1 Si                    1.103519
      2 C                    -0.775617
      3 H                    -0.210570
      4 C                    -0.775894
      5 C                    -0.775517
      6 H                     0.159841
      7 H                     0.159120
      8 H                     0.159150
      9 H                     0.159110
     10 H                     0.159190
     11 H                     0.159767
     12 H                     0.159097
     13 H                     0.159064
     14 H                     0.159740
  ----------------------------------------
  Sum of atomic charges =     0.000000

 -----------------------------------------------------------------
                    Cartesian Multipole Moments
 -----------------------------------------------------------------
    Charge (ESU x 10^10)
                -0.0000
    Dipole Moment (Debye)
         X       0.0030      Y      -0.0006      Z       0.3449
       Tot       0.3449
    Quadrupole Moments (Debye-Ang)
        XX     -36.4538     XY       0.0035     YY     -36.4481
        XZ       0.0035     YZ       0.0024     ZZ     -36.3577
    Octopole Moments (Debye-Ang^2)
       XXX       5.5137    XXY      -1.4956    XYY      -5.4803
       YYY       1.5043    XXZ      -3.4074    XYZ      -0.0008
       YYZ      -3.3997    XZZ       0.0016    YZZ      -0.0039
       ZZZ       6.1382
    Hexadecapole Moments (Debye-Ang^3)
      XXXX    -288.4547   XXXY       0.0142   XXYY     -96.1216
      XYYY       0.0256   YYYY    -288.3605   XXXZ       0.5183
      XXYZ      -0.1360   XYYZ      -0.4903   YYYZ       0.1445
      XXZZ     -63.5248   XYZZ      -0.0022   YYZZ     -63.5158
      XZZZ       0.0038   YZZZ       0.0043   ZZZZ    -100.9942
 -----------------------------------------------------------------
 DrvMan is completing analytic gradient of the MP2 energy
 MP2 relaxed dipole moment
            1
    1   0.0011924
    2  -0.0002441
    3   0.1357028
	Magnitude:	 0.136 au	 0.345 Debye
 MP2 energy read as -408.957367
 Full Analytical Gradient of MP2 Energy (in au.)
             1             2             3             4             5
    1    0.00041128   -0.02160416    0.00000888   -0.02935416    0.05071873
    2    0.00000303    0.04660601   -0.00000964   -0.04269132   -0.00445140
    3   -0.03930643   -0.01662798    0.10827880   -0.01687139   -0.01635757
             6             7             8             9            10
    1   -0.00221150   -0.00193298   -0.00315630   -0.00297893   -0.00408558
    2    0.00485759    0.00567045    0.00513130   -0.00481908   -0.00439275
    3   -0.00341410   -0.00151126   -0.00143343   -0.00158253   -0.00142073
            11            12            13            14
    1   -0.00306184    0.00589204    0.00596672    0.00538782
    2   -0.00430364   -0.00127690    0.00013397   -0.00045762
    3   -0.00320788   -0.00148882   -0.00154943   -0.00350725
 Gradient time:  CPU 0.13 s  wall 0.11 s
 Geometry Optimization Parameters
   NAtoms,    NIC,     NZ,  NCons,   NDum,   NFix, NCnnct, MaxDiis
       14      92       0       0       0       0       0       0


** GEOMETRY OPTIMIZATION IN DELOCALIZED INTERNAL COORDINATES **
   Searching for a Minimum

   Optimization Cycle:   1

                       Coordinates (Angstroms)
     ATOM                X               Y               Z
      1  Si        0.0001342767   -0.0001200627   -0.3462102960
      2  C         0.6985814304   -1.5040305463    0.2021142710
      3  H         0.0000541520    0.0008591091   -1.6412871411
      4  C         0.9532404519    1.3566530737    0.2020198337
      5  C        -1.6521822252    0.1470752081    0.2022664400
      6  H         0.7111287449   -1.5298399077    1.2914023146
      7  H         0.1060365658   -2.3395725456   -0.1706888283
      8  H         1.7190979051   -1.5905290796   -0.1707303732
      9  H         0.5179941511    2.2847774547   -0.1705359221
     10  H         1.9730871366    1.2627082779   -0.1705014610
     11  H         0.9698593741    1.3809866775    1.2916320065
     12  H        -2.0793501282    1.0776600796   -0.1711172496
     13  H        -2.2373184819   -0.6934525632   -0.1710412437
     14  H        -1.6803072360    0.1498969614    1.2914087730
   Point Group: c1    Number of degrees of freedom:    36


   Energy is   -408.957366753


 Attempting to Generate Delocalized Internal Coordinates

 36 Hessian modes will be used to form the next step
  Hessian Eigenvalues:
     0.021287    0.021378    0.021395    0.051354    0.060757    0.060829
     0.069124    0.069152    0.069193    0.069293    0.069345    0.069367
     0.160000    0.160000    0.160000    0.160000    0.160000    0.160000
     0.160000    0.160000    0.160000    0.171457    0.171480    0.303687
     0.307619    0.308295    0.308417    0.347305    0.348057    0.348062
     0.348114    0.348206    0.348245    0.348346    0.348513    0.348694

 Minimum Search - Taking Simple RFO Step
 Searching for Lamda that Minimizes Along All modes
 Value Taken    Lamda =  -0.07451320
 Calculated Step too Large.  Step scaled by  0.671579
 Step Taken.  Stepsize is  0.300000

                             Maximum     Tolerance    Cnvgd?
         Gradient           0.095358      0.000020      NO
         Displacement       0.177873      0.000120      NO
         Energy change     *********      0.000000      NO


 New Cartesian Coordinates Obtained by Inverse Iteration

 Displacement from previous Coordinates is:  0.548417
 ----------------------------------------------------------------
             Standard Nuclear Orientation (Angstroms)
    I     Atom           X                Y                Z
 ----------------------------------------------------------------
    1      Si      0.0000952977    -0.0000384617    -0.3617644341
    2      C       0.7252757294    -1.5614943211     0.2087389298
    3      H       0.0000157669     0.0008242462    -1.7585878777
    4      C       0.9896291851     1.4086858281     0.2087818894
    5      C      -1.7151487018     0.1527402518     0.2088680944
    6      H       0.7443686055    -1.6015430858     1.3004890440
    7      H       0.1425425634    -2.4102670615    -0.1564039445
    8      H       1.7496178536    -1.6639550475    -0.1565601999
    9      H       0.5662046961     2.3475687545    -0.1562179984
   10      H       2.0160778866     1.3295131609    -0.1562472416
   11      H       1.0151541635     1.4456588473     1.3006850582
   12      H      -2.1586856516     1.0815419908    -0.1568899291
   13      H      -2.3159951612    -0.6831202577    -0.1567070292
   14      H      -1.7590961156     0.1569572928     1.3005467625
 ----------------------------------------------------------------
 Molecular Point Group                 C1    NOp =  1
 Largest Abelian Subgroup              C1    NOp =  1
 Nuclear Repulsion Energy =   180.0823750858 hartrees
 There are       21 alpha and       21 beta electrons
 Applying Cartesian multipole field
    Component          Value
    ---------          -----
     (2,0,0)        1.00000E-11
     (0,2,0)        2.00000E-11
     (0,0,2)       -3.00000E-11
 Nucleus-field energy     =     0.0000000041 hartrees
 Requested basis set is 6-311+G(d,p)
 There are 71 shells and 156 basis functions
 A cutoff of  1.0D-11 yielded   2454 shell pairs
 There are     12109 function pairs (     12763 Cartesian)
 Smallest overlap matrix eigenvalue = 3.05E-04
 Guess MOs from SCF MO coefficient file
 Reading MOs from coefficient file
 Reading MOs from coefficient file

 -----------------------------------------------------------------------
  General SCF calculation program by
  Eric Jon Sundstrom, Paul Horn, Yuezhi Mao, Dmitri Zuev, Alec White,
  David Stuck, Shaama M.S., Shane Yost, Joonho Lee, David Small,
  Daniel Levine, Susi Lehtola, Hugh Burton, Evgeny Epifanovsky
 -----------------------------------------------------------------------
 Hartree-Fock
 using 4 threads for integral computing
 -------------------------------------------------------
 OpenMP Integral computing Module                
 Release: version 1.0, May 2013, Q-Chem Inc. Pittsburgh 
 -------------------------------------------------------
 A restricted SCF calculation will be
 performed using DIIS
 SCF converges when DIIS error is below 1.0e-08
 ---------------------------------------
  Cycle       Energy         DIIS error
 ---------------------------------------
    1    -408.3655620897      3.31e-03  
    2    -408.4147966878      2.94e-04  
    3    -408.4150367959      7.73e-05  
    4    -408.4150602520      2.44e-05  
    5    -408.4150644351      6.63e-06  
    6    -408.4150646900      1.49e-06  
    7    -408.4150647100      2.80e-07  
    8    -408.4150647105      7.51e-08  
    9    -408.4150647105      1.23e-08  
   10    -408.4150647105      2.09e-09  Convergence criterion met
 ---------------------------------------
 SCF time:   CPU 14.95s  wall 4.00s 
 SCF   energy in the final basis set =     -408.4150647105
 Total energy in the final basis set =     -408.4150647105
 
 Components of the MP2 correlation energy:
        aaaa  correlation energy =        -0.0613556735 au
        abab  correlation energy =        -0.4537996116 au
        bbbb  correlation energy =        -0.0613556735 au
        non-Brillouin singles    =        -0.0000000000 au

 Total  MP2   correlation energy =                    -0.57651096 au
        MP2         total energy =                  -408.99157567 au
  Entering Z-vector solver.
   1         0           1      0.000198    0.000198
   2         0           1      0.000050    0.000050
   3         0           1      0.000007    0.000007
   4         0           1      0.000002    0.000002
   5         1           0      0.000000    0.000000    Roots Converged
 
 --------------------------------------------------------------
 
                    Orbital Energies (a.u.)
 --------------------------------------------------------------
 
 Alpha MOs
 -- Occupied --
-68.728 -11.191 -11.191 -11.191  -6.081  -4.188  -4.188  -4.188
 -0.978  -0.926  -0.926  -0.654  -0.580  -0.566  -0.566  -0.542
 -0.542  -0.529  -0.446  -0.435  -0.435
 -- Virtual --
  0.055   0.073   0.073   0.080   0.118   0.118   0.124   0.127
  0.127   0.157   0.160   0.160   0.161   0.188   0.188   0.204
  0.257   0.257   0.268   0.275   0.281   0.281   0.315   0.315
  0.348   0.351   0.381   0.381   0.403   0.465   0.477   0.477
  0.487   0.487   0.587   0.618   0.641   0.641   0.683   0.683
  0.693   0.693   0.792   0.842   0.842   0.852   0.864   0.864
  0.888   0.917   0.917   0.917   0.957   0.957   1.076   1.136
  1.136   1.173   1.173   1.175   1.301   1.334   1.334   1.425
  1.443   1.443   1.619   1.619   1.665   1.722   1.722   1.724
  1.829   1.831   1.832   1.863   1.863   1.873   1.891   1.891
  1.940   2.005   2.010   2.010   2.058   2.099   2.099   2.137
  2.137   2.313   2.345   2.345   2.470   2.474   2.500   2.500
  2.554   2.554   2.600   2.764   2.764   2.804   2.805   2.810
  2.871   2.885   2.902   2.902   2.918   2.948   2.948   2.973
  2.973   2.981   3.111   3.171   3.264   3.265   3.622   3.762
  3.762   4.143   4.153   4.154   4.188   4.188   4.201   6.332
 12.452  12.486  12.486  25.119  25.119  25.138 144.124
 --------------------------------------------------------------
 
          Ground-State Mulliken Net Atomic Charges

     Atom                 Charge (a.u.)
  ----------------------------------------
      1 Si                    1.060268
      2 C                    -0.771172
      3 H                    -0.191419
      4 C                    -0.771277
      5 C                    -0.771076
      6 H                     0.160554
      7 H                     0.160526
      8 H                     0.160547
      9 H                     0.160502
     10 H                     0.160556
     11 H                     0.160494
     12 H                     0.160510
     13 H                     0.160492
     14 H                     0.160497
  ----------------------------------------
  Sum of atomic charges =     0.000000

 -----------------------------------------------------------------
                    Cartesian Multipole Moments
 -----------------------------------------------------------------
    Charge (ESU x 10^10)
                 0.0000
    Dipole Moment (Debye)
         X       0.0017      Y      -0.0007      Z       0.4293
       Tot       0.4293
    Quadrupole Moments (Debye-Ang)
        XX     -36.5287     XY       0.0022     YY     -36.5248
        XZ       0.0024     YZ       0.0020     ZZ     -36.8932
    Octopole Moments (Debye-Ang^2)
       XXX       4.8890    XXY      -1.3298    XYY      -4.8667
       YYY       1.3272    XXZ      -2.7722    XYZ      -0.0006
       YYZ      -2.7658    XZZ       0.0003    YZZ      -0.0047
       ZZZ       7.3485
    Hexadecapole Moments (Debye-Ang^3)
      XXXX    -304.4537   XXXY       0.0145   XXYY    -101.4643
      XYYY       0.0210   YYYY    -304.4016   XXXZ       0.3081
      XXYZ      -0.0819   XYYZ      -0.2890   YYYZ       0.0854
      XXZZ     -67.5786   XYZZ      -0.0014   YYZZ     -67.5753
      XZZZ       0.0001   YZZZ       0.0015   ZZZZ    -107.7640
 -----------------------------------------------------------------
 DrvMan is completing analytic gradient of the MP2 energy
 MP2 relaxed dipole moment
            1
    1   0.0006811
    2  -0.0002575
    3   0.1688841
	Magnitude:	 0.169 au	 0.429 Debye
 MP2 energy read as -408.991576
 Full Analytical Gradient of MP2 Energy (in au.)
             1             2             3             4             5
    1    0.00017977   -0.00886732    0.00000145   -0.01204190    0.02075154
    2   -0.00002800    0.01909443    0.00002163   -0.01758322   -0.00182669
    3   -0.01013030   -0.00719791    0.04015315   -0.00734398   -0.00705588
             6             7             8             9            10
    1   -0.00095069   -0.00081597   -0.00147891   -0.00127490   -0.00188994
    2    0.00211689    0.00259005    0.00229174   -0.00220137   -0.00192343
    3   -0.00152195   -0.00066170   -0.00061578   -0.00067093   -0.00061681
            11            12            13            14
    1   -0.00133367    0.00265571    0.00270266    0.00236219
    2   -0.00184509   -0.00064522    0.00013251   -0.00019423
    3   -0.00142372   -0.00066110   -0.00069260   -0.00156048
 Gradient time:  CPU 0.13 s  wall 0.10 s
 Geometry Optimization Parameters
   NAtoms,    NIC,     NZ,  NCons,   NDum,   NFix, NCnnct, MaxDiis
       14      92       0       0       0       0       0       0

 Cartesian Hessian Update
 Hessian Updated using BFGS Update


** GEOMETRY OPTIMIZATION IN DELOCALIZED INTERNAL COORDINATES **
   Searching for a Minimum

   Optimization Cycle:   2

                       Coordinates (Angstroms)
     ATOM                X               Y               Z
      1  Si        0.0000952977   -0.0000384617   -0.3617644341
      2  C         0.7252757294   -1.5614943211    0.2087389298
      3  H         0.0000157669    0.0008242462   -1.7585878777
      4  C         0.9896291851    1.4086858281    0.2087818894
      5  C        -1.7151487018    0.1527402518    0.2088680944
      6  H         0.7443686055   -1.6015430858    1.3004890440
      7  H         0.1425425634   -2.4102670615   -0.1564039445
      8  H         1.7496178536   -1.6639550475   -0.1565601999
      9  H         0.5662046961    2.3475687545   -0.1562179984
     10  H         2.0160778866    1.3295131609   -0.1562472416
     11  H         1.0151541635    1.4456588473    1.3006850582
     12  H        -2.1586856516    1.0815419908   -0.1568899291
     13  H        -2.3159951612   -0.6831202577   -0.1567070292
     14  H        -1.7590961156    0.1569572928    1.3005467625
   Point Group: c1    Number of degrees of freedom:    36


   Energy is   -408.991575669

 Hessian Updated using BFGS Update

 29 Hessian modes will be used to form the next step
  Hessian Eigenvalues:
     0.021287    0.021378    0.021395    0.051346    0.060757    0.060829
     0.069124    0.069152    0.069193    0.069293    0.069345    0.069367
     0.159997    0.161218    0.171457    0.171480    0.302304    0.307873
     0.308359    0.342686    0.347312    0.348044    0.348060    0.348107
     0.348206    0.348244    0.348341    0.348501    0.348682

 Minimum Search - Taking Simple RFO Step
 Searching for Lamda that Minimizes Along All modes
 Value Taken    Lamda =  -0.01305161
 Step Taken.  Stepsize is  0.196324

                             Maximum     Tolerance    Cnvgd?
         Gradient           0.040075      0.000020      NO
         Displacement       0.119667      0.000120      NO
         Energy change     -0.034209      0.000000      NO


 New Cartesian Coordinates Obtained by Inverse Iteration

 Displacement from previous Coordinates is:  0.371327
 ----------------------------------------------------------------
             Standard Nuclear Orientation (Angstroms)
    I     Atom           X                Y                Z
 ----------------------------------------------------------------
    1      Si      0.0000970436     0.0001113110    -0.3790973291
    2      C       0.7434290889    -1.6003944799     0.2120967787
    3      H       0.0000737121     0.0006204992    -1.8328524544
    4      C       1.0143270574     1.4440777316     0.2123378880
    5      C      -1.7578276337     0.1566357537     0.2122177212
    6      H       0.7655240039    -1.6472370245     1.3059207470
    7      H       0.1682729417    -2.4601462546    -0.1455909551
    8      H       1.7712885404    -1.7156578653    -0.1458927683
    9      H       0.6000651862     2.3919162509    -0.1454591801
   10      H       2.0464969685     1.3763896176    -0.1453977123
   11      H       1.0440095440     1.4867625597     1.3061780873
   12      H      -2.2147135334     1.0844491270    -0.1460389780
   13      H      -2.3715051252    -0.6759601457    -0.1457043573
   14      H      -1.8094816769     0.1615050564     1.3060136364
 ----------------------------------------------------------------
 Molecular Point Group                 C1    NOp =  1
 Largest Abelian Subgroup              C1    NOp =  1
 Nuclear Repulsion Energy =   176.2631237280 hartrees
 There are       21 alpha and       21 beta electrons
 Applying Cartesian multipole field
    Component          Value
    ---------          -----
     (2,0,0)        1.00000E-11
     (0,2,0)        2.00000E-11
     (0,0,2)       -3.00000E-11
 Nucleus-field energy     =     0.0000000043 hartrees
 Requested basis set is 6-311+G(d,p)
 There are 71 shells and 156 basis functions
 A cutoff of  1.0D-11 yielded   2454 shell pairs
 There are     12109 function pairs (     12763 Cartesian)
 Smallest overlap matrix eigenvalue = 3.10E-04
 Guess MOs from SCF MO coefficient file
 Reading MOs from coefficient file
 Reading MOs from coefficient file

 -----------------------------------------------------------------------
  General SCF calculation program by
  Eric Jon Sundstrom, Paul Horn, Yuezhi Mao, Dmitri Zuev, Alec White,
  David Stuck, Shaama M.S., Shane Yost, Joonho Lee, David Small,
  Daniel Levine, Susi Lehtola, Hugh Burton, Evgeny Epifanovsky
 -----------------------------------------------------------------------
 Hartree-Fock
 using 4 threads for integral computing
 -------------------------------------------------------
 OpenMP Integral computing Module                
 Release: version 1.0, May 2013, Q-Chem Inc. Pittsburgh 
 -------------------------------------------------------
 A restricted SCF calculation will be
 performed using DIIS
 SCF converges when DIIS error is below 1.0e-08
 ---------------------------------------
  Cycle       Energy         DIIS error
 ---------------------------------------
    1    -408.3855728848      1.86e-03  
    2    -408.4239723789      1.78e-04  
    3    -408.4240766938      4.74e-05  
    4    -408.4240869630      1.49e-05  
    5    -408.4240887102      3.89e-06  
    6    -408.4240888025      8.51e-07  
    7    -408.4240888097      1.24e-07  
    8    -408.4240888098      2.69e-08  
    9    -408.4240888098      7.84e-09  Convergence criterion met
 ---------------------------------------
 SCF time:   CPU 13.96s  wall 4.00s 
 SCF   energy in the final basis set =     -408.4240888098
 Total energy in the final basis set =     -408.4240888098
 
 Components of the MP2 correlation energy:
        aaaa  correlation energy =        -0.0608848439 au
        abab  correlation energy =        -0.4537750746 au
        bbbb  correlation energy =        -0.0608848439 au
        non-Brillouin singles    =        -0.0000000000 au

 Total  MP2   correlation energy =                    -0.57554476 au
        MP2         total energy =                  -408.99963357 au
  Entering Z-vector solver.
   1         0           1      0.000205    0.000205
   2         0           1      0.000049    0.000049
   3         0           1      0.000007    0.000007
   4         0           1      0.000001    0.000001
   5         1           0      0.000000    0.000000    Roots Converged
 
 --------------------------------------------------------------
 
                    Orbital Energies (a.u.)
 --------------------------------------------------------------
 
 Alpha MOs
 -- Occupied --
-68.747 -11.197 -11.197 -11.197  -6.096  -4.203  -4.202  -4.202
 -0.968  -0.923  -0.923  -0.651  -0.574  -0.561  -0.561  -0.540
 -0.540  -0.529  -0.444  -0.433  -0.433
 -- Virtual --
  0.055   0.073   0.073   0.081   0.118   0.118   0.123   0.127
  0.127   0.156   0.159   0.159   0.160   0.188   0.188   0.204
  0.251   0.251   0.255   0.277   0.277   0.277   0.315   0.315
  0.339   0.346   0.379   0.379   0.398   0.453   0.473   0.473
  0.487   0.487   0.574   0.632   0.640   0.640   0.678   0.684
  0.688   0.689   0.771   0.841   0.841   0.845   0.865   0.865
  0.892   0.915   0.915   0.920   0.957   0.957   1.080   1.122
  1.122   1.135   1.141   1.141   1.292   1.322   1.322   1.418
  1.418   1.419   1.618   1.619   1.653   1.726   1.727   1.728
  1.824   1.824   1.832   1.867   1.867   1.874   1.874   1.883
  1.910   1.994   2.007   2.007   2.047   2.068   2.068   2.108
  2.108   2.303   2.356   2.356   2.409   2.476   2.492   2.492
  2.539   2.539   2.578   2.759   2.759   2.792   2.793   2.793
  2.866   2.884   2.898   2.898   2.907   2.939   2.939   2.955
  2.955   2.976   3.100   3.128   3.246   3.246   3.568   3.709
  3.709   4.136   4.145   4.145   4.176   4.176   4.187   6.285
 12.391  12.431  12.431  25.109  25.109  25.126 144.056
 --------------------------------------------------------------
 
          Ground-State Mulliken Net Atomic Charges

     Atom                 Charge (a.u.)
  ----------------------------------------
      1 Si                    1.024082
      2 C                    -0.762550
      3 H                    -0.180657
      4 C                    -0.762550
      5 C                    -0.762519
      6 H                     0.160425
      7 H                     0.160499
      8 H                     0.160504
      9 H                     0.160482
     10 H                     0.160502
     11 H                     0.160409
     12 H                     0.160482
     13 H                     0.160480
     14 H                     0.160411
  ----------------------------------------
  Sum of atomic charges =     0.000000

 -----------------------------------------------------------------
                    Cartesian Multipole Moments
 -----------------------------------------------------------------
    Charge (ESU x 10^10)
                 0.0000
    Dipole Moment (Debye)
         X       0.0007      Y      -0.0004      Z       0.4539
       Tot       0.4539
    Quadrupole Moments (Debye-Ang)
        XX     -36.5807     XY       0.0008     YY     -36.5791
        XZ       0.0008     YZ       0.0009     ZZ     -37.2004
    Octopole Moments (Debye-Ang^2)
       XXX       4.4035    XXY      -1.2047    XYY      -4.3969
       YYY       1.1835    XXZ      -2.2455    XYZ      -0.0001
       YYZ      -2.2432    XZZ      -0.0010    YZZ      -0.0064
       ZZZ       8.2520
    Hexadecapole Moments (Debye-Ang^3)
      XXXX    -315.6951   XXXY       0.0148   XXYY    -105.2236
      XYYY       0.0123   YYYY    -315.6740   XXXZ       0.1231
      XXYZ      -0.0363   XYYZ      -0.1195   YYYZ       0.0275
      XXZZ     -70.4784   XYZZ       0.0007   YYZZ     -70.4781
      XZZZ      -0.0017   YZZZ      -0.0036   ZZZZ    -112.3902
 -----------------------------------------------------------------
 DrvMan is completing analytic gradient of the MP2 energy
 MP2 relaxed dipole moment
            1
    1   0.0002797
    2  -0.0001445
    3   0.1785899
	Magnitude:	 0.179 au	 0.454 Debye
 MP2 energy read as -408.999634
 Full Analytical Gradient of MP2 Energy (in au.)
             1             2             3             4             5
    1    0.00007403   -0.00264869    0.00000023   -0.00360570    0.00614983
    2   -0.00000912    0.00566944    0.00001348   -0.00520866   -0.00055296
    3   -0.00460124   -0.00236806    0.01252119   -0.00240491   -0.00231014
             6             7             8             9            10
    1   -0.00004073   -0.00011220   -0.00011396   -0.00015078   -0.00015605
    2    0.00011234    0.00024939    0.00024681   -0.00019687   -0.00019846
    3   -0.00007019   -0.00010548   -0.00009682   -0.00009467   -0.00010020
            11            12            13            14
    1   -0.00006990    0.00027250    0.00027229    0.00012914
    2   -0.00007218   -0.00003231   -0.00001514   -0.00000575
    3   -0.00005848   -0.00011518   -0.00011836   -0.00007745
 Gradient time:  CPU 0.14 s  wall 0.11 s
 Geometry Optimization Parameters
   NAtoms,    NIC,     NZ,  NCons,   NDum,   NFix, NCnnct, MaxDiis
       14      92       0       0       0       0       0       0

 Cartesian Hessian Update
 Hessian Updated using BFGS Update


** GEOMETRY OPTIMIZATION IN DELOCALIZED INTERNAL COORDINATES **
   Searching for a Minimum

   Optimization Cycle:   3

                       Coordinates (Angstroms)
     ATOM                X               Y               Z
      1  Si        0.0000970436    0.0001113110   -0.3790973291
      2  C         0.7434290889   -1.6003944799    0.2120967787
      3  H         0.0000737121    0.0006204992   -1.8328524544
      4  C         1.0143270574    1.4440777316    0.2123378880
      5  C        -1.7578276337    0.1566357537    0.2122177212
      6  H         0.7655240039   -1.6472370245    1.3059207470
      7  H         0.1682729417   -2.4601462546   -0.1455909551
      8  H         1.7712885404   -1.7156578653   -0.1458927683
      9  H         0.6000651862    2.3919162509   -0.1454591801
     10  H         2.0464969685    1.3763896176   -0.1453977123
     11  H         1.0440095440    1.4867625597    1.3061780873
     12  H        -2.2147135334    1.0844491270   -0.1460389780
     13  H        -2.3715051252   -0.6759601457   -0.1457043573
     14  H        -1.8094816769    0.1615050564    1.3060136364
   Point Group: c1    Number of degrees of freedom:    36


   Energy is   -408.999633572

 Hessian Updated using BFGS Update

 30 Hessian modes will be used to form the next step
  Hessian Eigenvalues:
     0.021287    0.021378    0.021395    0.051243    0.060757    0.060829
     0.069123    0.069152    0.069193    0.069292    0.069343    0.069366
     0.159928    0.160000    0.162821    0.171457    0.171480    0.256588
     0.307776    0.308320    0.308403    0.347315    0.348059    0.348073
     0.348141    0.348218    0.348264    0.348365    0.348550    0.348749

 Minimum Search - Taking Simple RFO Step
 Searching for Lamda that Minimizes Along All modes
 Value Taken    Lamda =  -0.00126289
 Step Taken.  Stepsize is  0.072330

                             Maximum     Tolerance    Cnvgd?
         Gradient           0.010609      0.000020      NO
         Displacement       0.046786      0.000120      NO
         Energy change     -0.008058      0.000000      NO


 New Cartesian Coordinates Obtained by Inverse Iteration

 Displacement from previous Coordinates is:  0.111708
 ----------------------------------------------------------------
             Standard Nuclear Orientation (Angstroms)
    I     Atom           X                Y                Z
 ----------------------------------------------------------------
    1      Si      0.0000779313     0.0001924878    -0.3878872276
    2      C       0.7488356122    -1.6119660367     0.2140598805
    3      H       0.0000832094     0.0004705911    -1.8666583162
    4      C       1.0216946705     1.4546942303     0.2143656188
    5      C      -1.7705253542     0.1577947689     0.2141326196
    6      H       0.7688667886    -1.6545595008     1.3082463701
    7      H       0.1748367784    -2.4740154193    -0.1406652471
    8      H       1.7776912727    -1.7296028496    -0.1409937621
    9      H       0.6089648157     2.4045036022    -0.1405646006
   10      H       2.0552468435     1.3888814733    -0.1404267805
   11      H       1.0486211808     1.4932652003     1.3085515199
   12      H      -2.2300775243     1.0857515999    -0.1410532973
   13      H      -2.3867508040    -0.6745600534    -0.1406806806
   14      H      -1.8175093031     0.1622220430     1.3083050269
 ----------------------------------------------------------------
 Molecular Point Group                 C1    NOp =  1
 Largest Abelian Subgroup              C1    NOp =  1
 Nuclear Repulsion Energy =   175.1017148047 hartrees
 There are       21 alpha and       21 beta electrons
 Applying Cartesian multipole field
    Component          Value
    ---------          -----
     (2,0,0)        1.00000E-11
     (0,2,0)        2.00000E-11
     (0,0,2)       -3.00000E-11
 Nucleus-field energy     =     0.0000000043 hartrees
 Requested basis set is 6-311+G(d,p)
 There are 71 shells and 156 basis functions
 A cutoff of  1.0D-11 yielded   2454 shell pairs
 There are     12109 function pairs (     12763 Cartesian)
 Smallest overlap matrix eigenvalue = 3.08E-04
 Guess MOs from SCF MO coefficient file
 Reading MOs from coefficient file
 Reading MOs from coefficient file

 -----------------------------------------------------------------------
  General SCF calculation program by
  Eric Jon Sundstrom, Paul Horn, Yuezhi Mao, Dmitri Zuev, Alec White,
  David Stuck, Shaama M.S., Shane Yost, Joonho Lee, David Small,
  Daniel Levine, Susi Lehtola, Hugh Burton, Evgeny Epifanovsky
 -----------------------------------------------------------------------
 Hartree-Fock
 using 4 threads for integral computing
 -------------------------------------------------------
 OpenMP Integral computing Module                
 Release: version 1.0, May 2013, Q-Chem Inc. Pittsburgh 
 -------------------------------------------------------
 A restricted SCF calculation will be
 performed using DIIS
 SCF converges when DIIS error is below 1.0e-08
 ---------------------------------------
  Cycle       Energy         DIIS error
 ---------------------------------------
    1    -408.4116777234      6.30e-04  
    2    -408.4250467320      6.67e-05  
    3    -408.4250638140      1.89e-05  
    4    -408.4250655020      5.88e-06  
    5    -408.4250657773      1.66e-06  
    6    -408.4250657972      3.23e-07  
    7    -408.4250657983      4.95e-08  
    8    -408.4250657983      1.51e-08  
    9    -408.4250657983      2.45e-09  Convergence criterion met
 ---------------------------------------
 SCF time:   CPU 13.22s  wall 3.00s 
 SCF   energy in the final basis set =     -408.4250657983
 Total energy in the final basis set =     -408.4250657983
 
 Components of the MP2 correlation energy:
        aaaa  correlation energy =        -0.0607520443 au
        abab  correlation energy =        -0.4537887667 au
        bbbb  correlation energy =        -0.0607520443 au
        non-Brillouin singles    =        -0.0000000000 au

 Total  MP2   correlation energy =                    -0.57529286 au
        MP2         total energy =                  -409.00035865 au
  Entering Z-vector solver.
   1         0           1      0.000207    0.000207
   2         0           1      0.000049    0.000049
   3         0           1      0.000007    0.000007
   4         0           1      0.000001    0.000001
   5         1           0      0.000000    0.000000    Roots Converged
 
 --------------------------------------------------------------
 
                    Orbital Energies (a.u.)
 --------------------------------------------------------------
 
 Alpha MOs
 -- Occupied --
-68.753 -11.199 -11.199 -11.199  -6.101  -4.208  -4.207  -4.207
 -0.966  -0.923  -0.923  -0.649  -0.573  -0.560  -0.560  -0.540
 -0.540  -0.529  -0.442  -0.432  -0.432
 -- Virtual --
  0.055   0.073   0.073   0.081   0.117   0.117   0.123   0.127
  0.127   0.156   0.159   0.159   0.160   0.188   0.188   0.204
  0.249   0.249   0.251   0.277   0.277   0.277   0.314   0.314
  0.334   0.346   0.378   0.378   0.398   0.450   0.471   0.471
  0.486   0.486   0.570   0.635   0.640   0.640   0.677   0.684
  0.686   0.686   0.765   0.841   0.841   0.844   0.865   0.865
  0.894   0.914   0.914   0.921   0.957   0.957   1.079   1.113
  1.113   1.121   1.137   1.137   1.290   1.319   1.319   1.411
  1.411   1.418   1.617   1.617   1.651   1.727   1.727   1.728
  1.821   1.821   1.832   1.859   1.859   1.876   1.876   1.885
  1.902   1.992   2.007   2.007   2.044   2.060   2.060   2.099
  2.099   2.295   2.356   2.356   2.386   2.476   2.489   2.489
  2.535   2.535   2.572   2.757   2.757   2.789   2.792   2.792
  2.865   2.884   2.897   2.897   2.904   2.936   2.936   2.951
  2.951   2.976   3.094   3.116   3.241   3.241   3.551   3.691
  3.691   4.135   4.143   4.143   4.173   4.173   4.184   6.268
 12.370  12.415  12.415  25.106  25.106  25.123 144.032
 --------------------------------------------------------------
 
          Ground-State Mulliken Net Atomic Charges

     Atom                 Charge (a.u.)
  ----------------------------------------
      1 Si                    1.005850
      2 C                    -0.757596
      3 H                    -0.176595
      4 C                    -0.757576
      5 C                    -0.757586
      6 H                     0.160271
      7 H                     0.160452
      8 H                     0.160455
      9 H                     0.160444
     10 H                     0.160453
     11 H                     0.160272
     12 H                     0.160444
     13 H                     0.160441
     14 H                     0.160271
  ----------------------------------------
  Sum of atomic charges =     0.000000

 -----------------------------------------------------------------
                    Cartesian Multipole Moments
 -----------------------------------------------------------------
    Charge (ESU x 10^10)
                 0.0000
    Dipole Moment (Debye)
         X       0.0003      Y      -0.0002      Z       0.4644
       Tot       0.4644
    Quadrupole Moments (Debye-Ang)
        XX     -36.6235     XY       0.0002     YY     -36.6229
        XZ       0.0001     YZ       0.0003     ZZ     -37.3176
    Octopole Moments (Debye-Ang^2)
       XXX       4.3180    XXY      -1.1851    XYY      -4.3184
       YYY       1.1548    XXZ      -2.0746    XYZ      -0.0000
       YYZ      -2.0745    XZZ      -0.0012    YZZ      -0.0077
       ZZZ       8.7292
    Hexadecapole Moments (Debye-Ang^3)
      XXXX    -318.9960   XXXY       0.0101   XXYY    -106.3313
      XYYY       0.0051   YYYY    -318.9984   XXXZ       0.1119
      XXYZ      -0.0356   XYYZ      -0.1175   YYYZ       0.0203
      XXZZ     -71.4895   XYZZ       0.0004   YYZZ     -71.4918
      XZZZ      -0.0038   YZZZ      -0.0058   ZZZZ    -114.6482
 -----------------------------------------------------------------
 DrvMan is completing analytic gradient of the MP2 energy
 MP2 relaxed dipole moment
            1
    1   0.0001126
    2  -0.0000786
    3   0.1827080
	Magnitude:	 0.183 au	 0.464 Debye
 MP2 energy read as -409.000359
 Full Analytical Gradient of MP2 Energy (in au.)
             1             2             3             4             5
    1    0.00002686   -0.00059455   -0.00000122   -0.00080414    0.00136975
    2   -0.00000120    0.00126462    0.00000495   -0.00116022   -0.00012406
    3   -0.00142253   -0.00040186    0.00242185   -0.00040057   -0.00038033
             6             7             8             9            10
    1    0.00011788    0.00002606    0.00007654    0.00004286    0.00009155
    2   -0.00024869   -0.00012026   -0.00009531    0.00011513    0.00008466
    3    0.00005534    0.00000572    0.00000457    0.00000426    0.00000456
            11            12            13            14
    1    0.00015869   -0.00011395   -0.00012011   -0.00027621
    2    0.00023201    0.00003913   -0.00001695    0.00002621
    3    0.00005496   -0.00000020    0.00000145    0.00005276
 Gradient time:  CPU 0.16 s  wall 0.13 s
 Geometry Optimization Parameters
   NAtoms,    NIC,     NZ,  NCons,   NDum,   NFix, NCnnct, MaxDiis
       14      92       0       0       0       0       0       0

 Cartesian Hessian Update
 Hessian Updated using BFGS Update


** GEOMETRY OPTIMIZATION IN DELOCALIZED INTERNAL COORDINATES **
   Searching for a Minimum

   Optimization Cycle:   4

                       Coordinates (Angstroms)
     ATOM                X               Y               Z
      1  Si        0.0000779313    0.0001924878   -0.3878872276
      2  C         0.7488356122   -1.6119660367    0.2140598805
      3  H         0.0000832094    0.0004705911   -1.8666583162
      4  C         1.0216946705    1.4546942303    0.2143656188
      5  C        -1.7705253542    0.1577947689    0.2141326196
      6  H         0.7688667886   -1.6545595008    1.3082463701
      7  H         0.1748367784   -2.4740154193   -0.1406652471
      8  H         1.7776912727   -1.7296028496   -0.1409937621
      9  H         0.6089648157    2.4045036022   -0.1405646006
     10  H         2.0552468435    1.3888814733   -0.1404267805
     11  H         1.0486211808    1.4932652003    1.3085515199
     12  H        -2.2300775243    1.0857515999   -0.1410532973
     13  H        -2.3867508040   -0.6745600534   -0.1406806806
     14  H        -1.8175093031    0.1622220430    1.3083050269
   Point Group: c1    Number of degrees of freedom:    36


   Energy is   -409.000358654

 Hessian Updated using BFGS Update

 31 Hessian modes will be used to form the next step
  Hessian Eigenvalues:
     0.021287    0.021378    0.021395    0.050792    0.060757    0.060829
     0.069121    0.069152    0.069193    0.069241    0.069321    0.069360
     0.157796    0.160000    0.160001    0.161576    0.171457    0.171481
     0.224046    0.307187    0.307931    0.308361    0.347327    0.348059
     0.348082    0.348147    0.348222    0.348285    0.348394    0.348576
     0.348813

 Minimum Search - Taking Simple RFO Step
 Searching for Lamda that Minimizes Along All modes
 Value Taken    Lamda =  -0.00004867
 Step Taken.  Stepsize is  0.017341

                             Maximum     Tolerance    Cnvgd?
         Gradient           0.001884      0.000020      NO
         Displacement       0.010387      0.000120      NO
         Energy change     -0.000725      0.000000      NO


 New Cartesian Coordinates Obtained by Inverse Iteration

 Displacement from previous Coordinates is:  0.023190
 ----------------------------------------------------------------
             Standard Nuclear Orientation (Angstroms)
    I     Atom           X                Y                Z
 ----------------------------------------------------------------
    1      Si      0.0000551173     0.0002210945    -0.3905809576
    2      C       0.7495641048    -1.6135170162     0.2144290758
    3      H       0.0000881865     0.0004116160    -1.8752176646
    4      C       1.0227007303     1.4561594616     0.2147242267
    5      C      -1.7722516483     0.1579431662     0.2144673871
    6      H       0.7675606633    -1.6518179232     1.3087001224
    7      H       0.1753042650    -2.4756804808    -0.1392137656
    8      H       1.7786814885    -1.7310481195    -0.1395100077
    9      H       0.6097945385     2.4061559191    -0.1390916918
   10      H       2.0564868768     1.3901074733    -0.1389550457
   11      H       1.0468805252     1.4907544786     1.3089958669
   12      H      -2.2318479641     1.0861751966    -0.1395502369
   13      H      -2.3885054144    -0.6747148146    -0.1391983251
   14      H      -1.8144553519     0.1619220854     1.3087321399
 ----------------------------------------------------------------
 Molecular Point Group                 C1    NOp =  1
 Largest Abelian Subgroup              C1    NOp =  1
 Nuclear Repulsion Energy =   174.9317082339 hartrees
 There are       21 alpha and       21 beta electrons
 Applying Cartesian multipole field
    Component          Value
    ---------          -----
     (2,0,0)        1.00000E-11
     (0,2,0)        2.00000E-11
     (0,0,2)       -3.00000E-11
 Nucleus-field energy     =     0.0000000043 hartrees
 Requested basis set is 6-311+G(d,p)
 There are 71 shells and 156 basis functions
 A cutoff of  1.0D-11 yielded   2454 shell pairs
 There are     12109 function pairs (     12763 Cartesian)
 Smallest overlap matrix eigenvalue = 3.07E-04
 Guess MOs from SCF MO coefficient file
 Reading MOs from coefficient file
 Reading MOs from coefficient file

 -----------------------------------------------------------------------
  General SCF calculation program by
  Eric Jon Sundstrom, Paul Horn, Yuezhi Mao, Dmitri Zuev, Alec White,
  David Stuck, Shaama M.S., Shane Yost, Joonho Lee, David Small,
  Daniel Levine, Susi Lehtola, Hugh Burton, Evgeny Epifanovsky
 -----------------------------------------------------------------------
 Hartree-Fock
 using 4 threads for integral computing
 -------------------------------------------------------
 OpenMP Integral computing Module                
 Release: version 1.0, May 2013, Q-Chem Inc. Pittsburgh 
 -------------------------------------------------------
 A restricted SCF calculation will be
 performed using DIIS
 SCF converges when DIIS error is below 1.0e-08
 ---------------------------------------
  Cycle       Energy         DIIS error
 ---------------------------------------
    1    -408.4230286190      1.31e-04  
    2    -408.4251313973      1.63e-05  
    3    -408.4251326308      4.97e-06  
    4    -408.4251327655      1.66e-06  
    5    -408.4251327880      4.10e-07  
    6    -408.4251327893      8.11e-08  
    7    -408.4251327893      1.27e-08  
    8    -408.4251327893      2.51e-09  Convergence criterion met
 ---------------------------------------
 SCF time:   CPU 11.54s  wall 3.00s 
 SCF   energy in the final basis set =     -408.4251327893
 Total energy in the final basis set =     -408.4251327893
 
 Components of the MP2 correlation energy:
        aaaa  correlation energy =        -0.0607338741 au
        abab  correlation energy =        -0.4537853963 au
        bbbb  correlation energy =        -0.0607338741 au
        non-Brillouin singles    =        -0.0000000000 au

 Total  MP2   correlation energy =                    -0.57525314 au
        MP2         total energy =                  -409.00038593 au
  Entering Z-vector solver.
   1         0           1      0.000207    0.000207
   2         0           1      0.000049    0.000049
   3         0           1      0.000007    0.000007
   4         0           1      0.000001    0.000001
   5         1           0      0.000000    0.000000    Roots Converged
 
 --------------------------------------------------------------
 
                    Orbital Energies (a.u.)
 --------------------------------------------------------------
 
 Alpha MOs
 -- Occupied --
-68.754 -11.199 -11.199 -11.199  -6.101  -4.208  -4.208  -4.208
 -0.966  -0.923  -0.923  -0.648  -0.573  -0.560  -0.560  -0.540
 -0.540  -0.529  -0.442  -0.431  -0.431
 -- Virtual --
  0.055   0.073   0.073   0.081   0.117   0.117   0.123   0.127
  0.127   0.156   0.158   0.158   0.160   0.188   0.188   0.204
  0.249   0.249   0.250   0.276   0.277   0.277   0.314   0.314
  0.333   0.346   0.378   0.378   0.398   0.449   0.471   0.471
  0.486   0.486   0.569   0.635   0.640   0.640   0.677   0.683
  0.686   0.686   0.765   0.841   0.841   0.843   0.865   0.865
  0.894   0.913   0.913   0.921   0.957   0.957   1.079   1.112
  1.112   1.118   1.136   1.136   1.290   1.319   1.319   1.410
  1.410   1.418   1.617   1.617   1.652   1.726   1.726   1.728
  1.820   1.820   1.832   1.857   1.857   1.876   1.876   1.885
  1.901   1.992   2.007   2.007   2.043   2.059   2.059   2.098
  2.098   2.292   2.354   2.354   2.381   2.476   2.489   2.489
  2.534   2.534   2.572   2.757   2.757   2.789   2.792   2.792
  2.865   2.884   2.897   2.897   2.903   2.936   2.936   2.950
  2.950   2.976   3.093   3.114   3.241   3.242   3.547   3.687
  3.687   4.135   4.143   4.143   4.173   4.173   4.184   6.265
 12.366  12.412  12.412  25.106  25.106  25.123 144.028
 --------------------------------------------------------------
 
          Ground-State Mulliken Net Atomic Charges

     Atom                 Charge (a.u.)
  ----------------------------------------
      1 Si                    1.001051
      2 C                    -0.756250
      3 H                    -0.175814
      4 C                    -0.756230
      5 C                    -0.756244
      6 H                     0.160134
      7 H                     0.160514
      8 H                     0.160520
      9 H                     0.160512
     10 H                     0.160517
     11 H                     0.160134
     12 H                     0.160514
     13 H                     0.160509
     14 H                     0.160135
  ----------------------------------------
  Sum of atomic charges =     0.000000

 -----------------------------------------------------------------
                    Cartesian Multipole Moments
 -----------------------------------------------------------------
    Charge (ESU x 10^10)
                 0.0000
    Dipole Moment (Debye)
         X       0.0001      Y      -0.0001      Z       0.4677
       Tot       0.4677
    Quadrupole Moments (Debye-Ang)
        XX     -36.6394     XY       0.0000     YY     -36.6393
        XZ       0.0000     YZ       0.0002     ZZ     -37.3473
    Octopole Moments (Debye-Ang^2)
       XXX       4.3357    XXY      -1.1908    XYY      -4.3373
       YYY       1.1586    XXZ      -2.0572    XYZ      -0.0001
       YYZ      -2.0575    XZZ      -0.0010    YZZ      -0.0082
       ZZZ       8.8821
    Hexadecapole Moments (Debye-Ang^3)
      XXXX    -319.3631   XXXY       0.0062   XXYY    -106.4549
      XYYY       0.0022   YYYY    -319.3696   XXXZ       0.1465
      XXYZ      -0.0455   XYYZ      -0.1545   YYYZ       0.0296
      XXZZ     -71.6878   XYZZ      -0.0004   YYZZ     -71.6901
      XZZZ      -0.0047   YZZZ      -0.0060   ZZZZ    -115.2706
 -----------------------------------------------------------------
 DrvMan is completing analytic gradient of the MP2 energy
 MP2 relaxed dipole moment
            1
    1   0.0000389
    2  -0.0000519
    3   0.1840263
	Magnitude:	 0.184 au	 0.468 Debye
 MP2 energy read as -409.000386
 Full Analytical Gradient of MP2 Energy (in au.)
             1             2             3             4             5
    1    0.00000811   -0.00009472   -0.00000107   -0.00012506    0.00021317
    2   -0.00000133    0.00019726    0.00000227   -0.00018134   -0.00001973
    3   -0.00026466    0.00003711    0.00024076    0.00004315    0.00004533
             6             7             8             9            10
    1    0.00005816    0.00001330    0.00003671    0.00002103    0.00004406
    2   -0.00012327   -0.00005861   -0.00004705    0.00005366    0.00004082
    3    0.00000547   -0.00001755   -0.00001908   -0.00002013   -0.00001907
            11            12            13            14
    1    0.00007871   -0.00005568   -0.00005882   -0.00013789
    2    0.00011354    0.00001863   -0.00000797    0.00001314
    3    0.00000424   -0.00002091   -0.00001922    0.00000457
 Gradient time:  CPU 0.14 s  wall 0.12 s
 Geometry Optimization Parameters
   NAtoms,    NIC,     NZ,  NCons,   NDum,   NFix, NCnnct, MaxDiis
       14      92       0       0       0       0       0       0

 Cartesian Hessian Update
 Hessian Updated using BFGS Update


** GEOMETRY OPTIMIZATION IN DELOCALIZED INTERNAL COORDINATES **
   Searching for a Minimum

   Optimization Cycle:   5

                       Coordinates (Angstroms)
     ATOM                X               Y               Z
      1  Si        0.0000551173    0.0002210945   -0.3905809576
      2  C         0.7495641048   -1.6135170162    0.2144290758
      3  H         0.0000881865    0.0004116160   -1.8752176646
      4  C         1.0227007303    1.4561594616    0.2147242267
      5  C        -1.7722516483    0.1579431662    0.2144673871
      6  H         0.7675606633   -1.6518179232    1.3087001224
      7  H         0.1753042650   -2.4756804808   -0.1392137656
      8  H         1.7786814885   -1.7310481195   -0.1395100077
      9  H         0.6097945385    2.4061559191   -0.1390916918
     10  H         2.0564868768    1.3901074733   -0.1389550457
     11  H         1.0468805252    1.4907544786    1.3089958669
     12  H        -2.2318479641    1.0861751966   -0.1395502369
     13  H        -2.3885054144   -0.6747148146   -0.1391983251
     14  H        -1.8144553519    0.1619220854    1.3087321399
   Point Group: c1    Number of degrees of freedom:    36


   Energy is   -409.000385934

 Hessian Updated using BFGS Update

 32 Hessian modes will be used to form the next step
  Hessian Eigenvalues:
     0.021287    0.021378    0.021395    0.048211    0.060756    0.060828
     0.067891    0.069126    0.069153    0.069194    0.069313    0.069357
     0.138159    0.160000    0.160000    0.160000    0.161293    0.171457
     0.171480    0.242981    0.304803    0.307881    0.308360    0.347299
     0.348051    0.348060    0.348148    0.348205    0.348243    0.348347
     0.348546    0.348747

 Minimum Search - Taking Simple RFO Step
 Searching for Lamda that Minimizes Along All modes
 Value Taken    Lamda =  -0.00000240
 Step Taken.  Stepsize is  0.005420

                             Maximum     Tolerance    Cnvgd?
         Gradient           0.000359      0.000020      NO
         Displacement       0.003242      0.000120      NO
         Energy change     -0.000027      0.000000      NO


 New Cartesian Coordinates Obtained by Inverse Iteration

 Displacement from previous Coordinates is:  0.010382
 ----------------------------------------------------------------
             Standard Nuclear Orientation (Angstroms)
    I     Atom           X                Y                Z
 ----------------------------------------------------------------
    1      Si      0.0000426802     0.0002341184    -0.3917779023
    2      C       0.7494656204    -1.6132998587     0.2143156424
    3      H       0.0000961632     0.0003877246    -1.8772735002
    4      C       1.0225780424     1.4559907287     0.2145913149
    5      C      -1.7720356461     0.1579166270     0.2143365515
    6      H       0.7664105304    -1.6493930935     1.3086580374
    7      H       0.1751075765    -2.4755932668    -0.1386016031
    8      H       1.7787556564    -1.7308428151    -0.1388634690
    9      H       0.6096350546     2.4061620220    -0.1384586217
   10      H       2.0565325322     1.3898888579    -0.1383350331
   11      H       1.0453486475     1.4885530060     1.3089367781
   12      H      -2.2317316205     1.0863011744    -0.1388967541
   13      H      -2.3883796168    -0.6748872226    -0.1385761871
   14      H      -1.8117695031     0.1616541346     1.3086758702
 ----------------------------------------------------------------
 Molecular Point Group                 C1    NOp =  1
 Largest Abelian Subgroup              C1    NOp =  1
 Nuclear Repulsion Energy =   174.9351845683 hartrees
 There are       21 alpha and       21 beta electrons
 Applying Cartesian multipole field
    Component          Value
    ---------          -----
     (2,0,0)        1.00000E-11
     (0,2,0)        2.00000E-11
     (0,0,2)       -3.00000E-11
 Nucleus-field energy     =     0.0000000043 hartrees
 Requested basis set is 6-311+G(d,p)
 There are 71 shells and 156 basis functions
 A cutoff of  1.0D-11 yielded   2454 shell pairs
 There are     12109 function pairs (     12763 Cartesian)
 Smallest overlap matrix eigenvalue = 3.06E-04
 Guess MOs from SCF MO coefficient file
 Reading MOs from coefficient file
 Reading MOs from coefficient file

 -----------------------------------------------------------------------
  General SCF calculation program by
  Eric Jon Sundstrom, Paul Horn, Yuezhi Mao, Dmitri Zuev, Alec White,
  David Stuck, Shaama M.S., Shane Yost, Joonho Lee, David Small,
  Daniel Levine, Susi Lehtola, Hugh Burton, Evgeny Epifanovsky
 -----------------------------------------------------------------------
 Hartree-Fock
 using 4 threads for integral computing
 -------------------------------------------------------
 OpenMP Integral computing Module                
 Release: version 1.0, May 2013, Q-Chem Inc. Pittsburgh 
 -------------------------------------------------------
 A restricted SCF calculation will be
 performed using DIIS
 SCF converges when DIIS error is below 1.0e-08
 ---------------------------------------
  Cycle       Energy         DIIS error
 ---------------------------------------
    1    -408.4250677022      2.68e-05  
    2    -408.4251347929      5.09e-06  
    3    -408.4251349477      1.48e-06  
    4    -408.4251349645      4.43e-07  
    5    -408.4251349659      8.83e-08  
    6    -408.4251349659      2.06e-08  
    7    -408.4251349659      5.27e-09  Convergence criterion met
 ---------------------------------------
 SCF time:   CPU 10.29s  wall 3.00s 
 SCF   energy in the final basis set =     -408.4251349659
 Total energy in the final basis set =     -408.4251349659
 
 Components of the MP2 correlation energy:
        aaaa  correlation energy =        -0.0607346436 au
        abab  correlation energy =        -0.4537832625 au
        bbbb  correlation energy =        -0.0607346436 au
        non-Brillouin singles    =        -0.0000000000 au

 Total  MP2   correlation energy =                    -0.57525255 au
        MP2         total energy =                  -409.00038752 au
  Entering Z-vector solver.
   1         0           1      0.000207    0.000207
   2         0           1      0.000049    0.000049
   3         0           1      0.000007    0.000007
   4         0           1      0.000001    0.000001
   5         1           0      0.000000    0.000000    Roots Converged
 
 --------------------------------------------------------------
 
                    Orbital Energies (a.u.)
 --------------------------------------------------------------
 
 Alpha MOs
 -- Occupied --
-68.754 -11.199 -11.199 -11.199  -6.101  -4.208  -4.208  -4.208
 -0.966  -0.923  -0.923  -0.648  -0.573  -0.560  -0.560  -0.540
 -0.540  -0.529  -0.441  -0.431  -0.431
 -- Virtual --
  0.055   0.073   0.073   0.081   0.117   0.117   0.123   0.127
  0.127   0.156   0.158   0.158   0.160   0.188   0.188   0.204
  0.248   0.248   0.250   0.276   0.277   0.277   0.314   0.314
  0.333   0.346   0.378   0.378   0.398   0.449   0.470   0.470
  0.486   0.486   0.569   0.635   0.640   0.640   0.677   0.683
  0.686   0.686   0.765   0.841   0.841   0.843   0.865   0.865
  0.894   0.913   0.913   0.921   0.957   0.957   1.078   1.112
  1.112   1.117   1.136   1.136   1.290   1.319   1.319   1.410
  1.410   1.418   1.617   1.617   1.653   1.726   1.726   1.727
  1.820   1.820   1.832   1.856   1.856   1.876   1.876   1.884
  1.902   1.992   2.007   2.007   2.043   2.059   2.059   2.098
  2.098   2.291   2.353   2.353   2.380   2.476   2.489   2.489
  2.534   2.534   2.572   2.757   2.757   2.789   2.792   2.792
  2.866   2.885   2.897   2.897   2.903   2.936   2.936   2.950
  2.950   2.977   3.092   3.114   3.242   3.242   3.547   3.687
  3.687   4.135   4.143   4.143   4.173   4.173   4.184   6.265
 12.366  12.412  12.412  25.106  25.106  25.123 144.028
 --------------------------------------------------------------
 
          Ground-State Mulliken Net Atomic Charges

     Atom                 Charge (a.u.)
  ----------------------------------------
      1 Si                    1.000194
      2 C                    -0.756000
      3 H                    -0.175715
      4 C                    -0.755983
      5 C                    -0.755995
      6 H                     0.160057
      7 H                     0.160552
      8 H                     0.160559
      9 H                     0.160554
     10 H                     0.160556
     11 H                     0.160056
     12 H                     0.160557
     13 H                     0.160550
     14 H                     0.160058
  ----------------------------------------
  Sum of atomic charges =     0.000000

 -----------------------------------------------------------------
                    Cartesian Multipole Moments
 -----------------------------------------------------------------
    Charge (ESU x 10^10)
                 0.0000
    Dipole Moment (Debye)
         X       0.0000      Y      -0.0001      Z       0.4681
       Tot       0.4681
    Quadrupole Moments (Debye-Ang)
        XX     -36.6429     XY       0.0000     YY     -36.6429
        XZ       0.0000     YZ       0.0001     ZZ     -37.3541
    Octopole Moments (Debye-Ang^2)
       XXX       4.3483    XXY      -1.1944    XYY      -4.3498
       YYY       1.1618    XXZ      -2.0530    XYZ      -0.0001
       YYZ      -2.0533    XZZ      -0.0009    YZZ      -0.0085
       ZZZ       8.9400
    Hexadecapole Moments (Debye-Ang^3)
      XXXX    -319.2461   XXXY       0.0040   XXYY    -106.4158
      XYYY       0.0008   YYYY    -319.2513   XXXZ       0.1655
      XXYZ      -0.0506   XYYZ      -0.1737   YYYZ       0.0353
      XXZZ     -71.7154   XYZZ      -0.0008   YYZZ     -71.7171
      XZZZ      -0.0049   YZZZ      -0.0056   ZZZZ    -115.4367
 -----------------------------------------------------------------
 DrvMan is completing analytic gradient of the MP2 energy
 MP2 relaxed dipole moment
            1
    1   0.0000098
    2  -0.0000374
    3   0.1841556
	Magnitude:	 0.184 au	 0.468 Debye
 MP2 energy read as -409.000388
 Full Analytical Gradient of MP2 Energy (in au.)
             1             2             3             4             5
    1    0.00000209   -0.00000357   -0.00000054   -0.00000252    0.00000529
    2   -0.00000155    0.00000483    0.00000143   -0.00000548   -0.00000092
    3    0.00003096    0.00006578   -0.00006864    0.00007003    0.00006961
             6             7             8             9            10
    1    0.00002072    0.00000192    0.00000521    0.00000237    0.00000619
    2   -0.00004309   -0.00000839   -0.00000675    0.00000713    0.00000621
    3   -0.00000905   -0.00002216   -0.00002315   -0.00002391   -0.00002310
            11            12            13            14
    1    0.00002754   -0.00000761   -0.00000838   -0.00004871
    2    0.00004002    0.00000265   -0.00000116    0.00000507
    3   -0.00000967   -0.00002424   -0.00002294   -0.00000951
 Gradient time:  CPU 0.12 s  wall 0.11 s
 Geometry Optimization Parameters
   NAtoms,    NIC,     NZ,  NCons,   NDum,   NFix, NCnnct, MaxDiis
       14      92       0       0       0       0       0       0

 Cartesian Hessian Update
 Hessian Updated using BFGS Update


** GEOMETRY OPTIMIZATION IN DELOCALIZED INTERNAL COORDINATES **
   Searching for a Minimum

   Optimization Cycle:   6

                       Coordinates (Angstroms)
     ATOM                X               Y               Z
      1  Si        0.0000426802    0.0002341184   -0.3917779023
      2  C         0.7494656204   -1.6132998587    0.2143156424
      3  H         0.0000961632    0.0003877246   -1.8772735002
      4  C         1.0225780424    1.4559907287    0.2145913149
      5  C        -1.7720356461    0.1579166270    0.2143365515
      6  H         0.7664105304   -1.6493930935    1.3086580374
      7  H         0.1751075765   -2.4755932668   -0.1386016031
      8  H         1.7787556564   -1.7308428151   -0.1388634690
      9  H         0.6096350546    2.4061620220   -0.1384586217
     10  H         2.0565325322    1.3898888579   -0.1383350331
     11  H         1.0453486475    1.4885530060    1.3089367781
     12  H        -2.2317316205    1.0863011744   -0.1388967541
     13  H        -2.3883796168   -0.6748872226   -0.1385761871
     14  H        -1.8117695031    0.1616541346    1.3086758702
   Point Group: c1    Number of degrees of freedom:    36


   Energy is   -409.000387516

 Hessian Updated using BFGS Update

 33 Hessian modes will be used to form the next step
  Hessian Eigenvalues:
     0.021284    0.021376    0.021395    0.033343    0.060756    0.060822
     0.063337    0.069125    0.069153    0.069193    0.069313    0.069357
     0.130317    0.159998    0.160000    0.160000    0.160000    0.168077
     0.171457    0.171482    0.258959    0.307798    0.308359    0.309357
     0.346512    0.347554    0.348060    0.348139    0.348224    0.348229
     0.348319    0.348596    0.349311

 Minimum Search - Taking Simple RFO Step
 Searching for Lamda that Minimizes Along All modes
 Value Taken    Lamda =   0.00000000
 Step Taken.  Stepsize is  0.004291

                             Maximum     Tolerance    Cnvgd?
         Gradient           0.000193      0.000020      NO
         Displacement       0.002795      0.000120      NO
         Energy change     -0.000002      0.000000      NO


 New Cartesian Coordinates Obtained by Inverse Iteration

 Displacement from previous Coordinates is:  0.008701
 ----------------------------------------------------------------
             Standard Nuclear Orientation (Angstroms)
    I     Atom           X                Y                Z
 ----------------------------------------------------------------
    1      Si      0.0000332109     0.0002459167    -0.3929169755
    2      C       0.7492947713    -1.6129282013     0.2140984813
    3      H       0.0001046022     0.0003690985    -1.8785003335
    4      C       1.0223572718     1.4556774846     0.2143520321
    5      C      -1.7716511712     0.1578755489     0.2141051578
    6      H       0.7654279265    -1.6473394006     1.3085189848
    7      H       0.1749789458    -2.4755131735    -0.1380376158
    8      H       1.7787946483    -1.7306834105    -0.1382577569
    9      H       0.6095315136     2.4061535109    -0.1378740548
   10      H       2.0565495585     1.3897262136    -0.1377669670
   11      H       1.0440567475     1.4866896703     1.3087775408
   12      H      -2.2316437755     1.0863801700    -0.1382844335
   13      H      -2.3882796652    -0.6749973478    -0.1380078809
   14      H      -1.8094984671     0.1614160574     1.3085249451
 ----------------------------------------------------------------
 Molecular Point Group                 C1    NOp =  1
 Largest Abelian Subgroup              C1    NOp =  1
 Nuclear Repulsion Energy =   174.9508486800 hartrees
 There are       21 alpha and       21 beta electrons
 Applying Cartesian multipole field
    Component          Value
    ---------          -----
     (2,0,0)        1.00000E-11
     (0,2,0)        2.00000E-11
     (0,0,2)       -3.00000E-11
 Nucleus-field energy     =     0.0000000043 hartrees
 Requested basis set is 6-311+G(d,p)
 There are 71 shells and 156 basis functions
 A cutoff of  1.0D-11 yielded   2454 shell pairs
 There are     12109 function pairs (     12763 Cartesian)
 Smallest overlap matrix eigenvalue = 3.05E-04
 Guess MOs from SCF MO coefficient file
 Reading MOs from coefficient file
 Reading MOs from coefficient file

 -----------------------------------------------------------------------
  General SCF calculation program by
  Eric Jon Sundstrom, Paul Horn, Yuezhi Mao, Dmitri Zuev, Alec White,
  David Stuck, Shaama M.S., Shane Yost, Joonho Lee, David Small,
  Daniel Levine, Susi Lehtola, Hugh Burton, Evgeny Epifanovsky
 -----------------------------------------------------------------------
 Hartree-Fock
 using 4 threads for integral computing
 -------------------------------------------------------
 OpenMP Integral computing Module                
 Release: version 1.0, May 2013, Q-Chem Inc. Pittsburgh 
 -------------------------------------------------------
 A restricted SCF calculation will be
 performed using DIIS
 SCF converges when DIIS error is below 1.0e-08
 ---------------------------------------
  Cycle       Energy         DIIS error
 ---------------------------------------
    1    -408.4251911871      1.82e-05  
    2    -408.4251314828      4.18e-06  
    3    -408.4251315961      1.08e-06  
    4    -408.4251316050      3.37e-07  
    5    -408.4251316056      6.54e-08  
    6    -408.4251316057      1.34e-08  
    7    -408.4251316057      3.51e-09  Convergence criterion met
 ---------------------------------------
 SCF time:   CPU 10.21s  wall 2.00s 
 SCF   energy in the final basis set =     -408.4251316057
 Total energy in the final basis set =     -408.4251316057
 
 Components of the MP2 correlation energy:
        aaaa  correlation energy =        -0.0607365357 au
        abab  correlation energy =        -0.4537833337 au
        bbbb  correlation energy =        -0.0607365357 au
        non-Brillouin singles    =        -0.0000000000 au

 Total  MP2   correlation energy =                    -0.57525641 au
        MP2         total energy =                  -409.00038801 au
  Entering Z-vector solver.
   1         0           1      0.000207    0.000207
   2         0           1      0.000049    0.000049
   3         0           1      0.000007    0.000007
   4         0           1      0.000001    0.000001
   5         1           0      0.000000    0.000000    Roots Converged
 
 --------------------------------------------------------------
 
                    Orbital Energies (a.u.)
 --------------------------------------------------------------
 
 Alpha MOs
 -- Occupied --
-68.754 -11.199 -11.199 -11.199  -6.101  -4.208  -4.208  -4.208
 -0.966  -0.923  -0.923  -0.648  -0.573  -0.560  -0.560  -0.540
[...]
 Red. Mass:       1.0644                 1.0644                 3.3790
 IR Active:          YES                    YES                    YES
 IR Intens:       12.415                 12.395                  2.225
 Raman Active:       YES                    YES                    YES
               X      Y      Z        X      Y      Z        X      Y      Z
 Si        -0.005 -0.008 -0.000   -0.008  0.005 -0.000   -0.000  0.000  0.106
 C         -0.013 -0.017 -0.031   -0.020  0.010 -0.037    0.242  0.034 -0.054
 H          0.330  0.524 -0.000    0.524 -0.330 -0.000    0.001 -0.000  0.098
 C         -0.012 -0.020  0.047   -0.017  0.011 -0.009   -0.091 -0.227 -0.054
 C         -0.010 -0.018 -0.016   -0.019  0.013  0.045   -0.151  0.192 -0.054
 H          0.283  0.095 -0.015    0.349  0.003 -0.018    0.105  0.015 -0.063
 H         -0.197 -0.013  0.188   -0.033 -0.048  0.143    0.312  0.046 -0.157
 H         -0.014  0.043  0.110   -0.198 -0.036  0.208    0.312  0.043 -0.157
 H         -0.080 -0.159 -0.236    0.004 -0.103 -0.008   -0.119 -0.293 -0.157
 H         -0.023 -0.134 -0.217    0.088  0.127  0.091   -0.117 -0.293 -0.157
 H          0.178  0.409  0.023    0.035 -0.102 -0.004   -0.039 -0.098 -0.063
 H         -0.005  0.078  0.030   -0.124  0.145 -0.234   -0.196  0.248 -0.157
 H          0.128 -0.116  0.125   -0.039  0.105 -0.200   -0.194  0.249 -0.157
 H         -0.041  0.162 -0.008    0.283 -0.321  0.022   -0.065  0.083 -0.063
 TransDip  -0.060 -0.095 -0.000   -0.095  0.060 -0.000   -0.000  0.000  0.048

 Mode:                10                     11                     12
 Frequency:       690.40                 728.31                 728.32
 Force Cnst:      0.3277                 0.9235                 0.9236
 Red. Mass:       1.1670                 2.9551                 2.9553
 IR Active:          YES                    YES                    YES
 IR Intens:        0.000                 12.870                 12.887
 Raman Active:       YES                    YES                    YES
               X      Y      Z        X      Y      Z        X      Y      Z
 Si        -0.000  0.000  0.000    0.009  0.163 -0.000    0.163 -0.009 -0.000
 C         -0.010  0.069  0.000   -0.057  0.065  0.017   -0.238 -0.048  0.089
 H         -0.000 -0.000 -0.000    0.016  0.304 -0.000    0.304 -0.016 -0.000
 C          0.064 -0.026 -0.000   -0.109 -0.208 -0.086    0.035 -0.100 -0.029
 C         -0.055 -0.043  0.000    0.153 -0.116  0.068   -0.056  0.162 -0.060
 H          0.021 -0.152  0.000   -0.046 -0.111  0.019   -0.309 -0.023  0.094
 H          0.372 -0.069 -0.098    0.237 -0.040 -0.057   -0.346 -0.021  0.124
 H         -0.338 -0.170  0.097   -0.328 -0.126  0.100   -0.231 -0.030  0.093
 H          0.022  0.377  0.098   -0.105 -0.360 -0.130    0.003  0.193  0.040
 H         -0.245 -0.288 -0.097   -0.057 -0.176 -0.079   -0.210 -0.315 -0.112
 H         -0.143  0.057 -0.000   -0.080 -0.290 -0.091   -0.131 -0.057 -0.031
 H         -0.126  0.356 -0.097    0.207 -0.363  0.136   -0.023 -0.051 -0.012
 H          0.316 -0.208  0.097   -0.014 -0.049  0.030   -0.307  0.284 -0.133
 H          0.121  0.095 -0.000    0.092 -0.230  0.072   -0.191  0.114 -0.063
 TransDip   0.000 -0.000  0.000    0.006  0.115 -0.000    0.115 -0.006  0.000

 Mode:                13                     14                     15
 Frequency:       864.79                 864.80                 889.48
 Force Cnst:      0.6177                 0.6177                 0.7251
 Red. Mass:       1.4018                 1.4018                 1.5556
 IR Active:          YES                    YES                    YES
 IR Intens:       15.932                 15.939                 59.873
 Raman Active:       YES                    YES                    YES
               X      Y      Z        X      Y      Z        X      Y      Z
 Si         0.037  0.044  0.000   -0.044  0.037  0.000    0.000 -0.000  0.089
 C          0.004 -0.076  0.056    0.018 -0.082 -0.051   -0.020 -0.003 -0.099
 H          0.192  0.230  0.000   -0.230  0.192  0.000    0.000  0.000  0.078
 C         -0.035  0.005 -0.072    0.098 -0.043 -0.023    0.008  0.019 -0.099
 C         -0.085 -0.069  0.016    0.024  0.008  0.074    0.013 -0.016 -0.099
 H         -0.274  0.079  0.044    0.215  0.161 -0.040    0.440  0.062 -0.071
 H         -0.239  0.059 -0.011   -0.359  0.018  0.156   -0.126 -0.058  0.197
 H          0.317  0.104 -0.156    0.246  0.134 -0.004   -0.137  0.021  0.197
 H          0.028 -0.079  0.074    0.063  0.423  0.138    0.086  0.108  0.197
 H          0.084  0.173  0.140   -0.245 -0.305 -0.068    0.013  0.138  0.197
 H         -0.075 -0.330 -0.057   -0.194 -0.038 -0.018   -0.166 -0.412 -0.071
 H         -0.177  0.395 -0.129   -0.023 -0.045 -0.087    0.113 -0.080  0.197
 H          0.332 -0.238  0.082   -0.096  0.120 -0.133    0.050 -0.129  0.197
 H          0.180  0.047  0.013    0.183 -0.292  0.059   -0.274  0.350 -0.071
 TransDip   0.082  0.098  0.000   -0.098  0.082  0.000   -0.000 -0.000  0.248

 Mode:                16                     17                     18
 Frequency:       938.48                 938.49                1307.72
 Force Cnst:      0.6875                 0.6875                 1.2749
 Red. Mass:       1.3249                 1.3249                 1.2653
 IR Active:          YES                    YES                    YES
 IR Intens:      178.282                178.233                 42.249
 Raman Active:       YES                    YES                    YES
               X      Y      Z        X      Y      Z        X      Y      Z
 Si        -0.015 -0.080 -0.000   -0.080  0.015  0.000    0.013 -0.001  0.000
 C          0.005  0.053  0.020    0.039 -0.012  0.058   -0.114 -0.016  0.038
 H          0.150  0.782 -0.000    0.782 -0.150 -0.000   -0.025  0.001  0.000
 C          0.005  0.040 -0.060    0.052 -0.013 -0.012   -0.018 -0.035 -0.013
 C          0.016  0.046  0.040    0.046 -0.001 -0.046   -0.050  0.059 -0.025
 H         -0.062 -0.102  0.013   -0.222  0.000  0.039    0.454  0.062  0.042
 H          0.227 -0.013 -0.081    0.077  0.044 -0.130    0.382 -0.117 -0.220
 H         -0.116 -0.073 -0.016    0.200  0.031 -0.153    0.332  0.218 -0.223
 H          0.066  0.095  0.140    0.032  0.213  0.062   -0.008  0.127  0.079
 H          0.063  0.172  0.153   -0.108 -0.120 -0.005    0.102  0.096  0.069
 H         -0.068 -0.219 -0.040   -0.105 -0.006 -0.008    0.070  0.137 -0.014
 H         -0.015 -0.063 -0.072    0.127 -0.199  0.135    0.058 -0.254  0.151
 H         -0.170  0.169 -0.124   -0.042 -0.023  0.090    0.241 -0.122  0.143
 H          0.037 -0.165  0.027   -0.158  0.099 -0.031    0.197 -0.233 -0.028
 TransDip  -0.081 -0.420 -0.000   -0.420  0.081  0.000    0.208 -0.010 -0.000

 Mode:                19                     20                     21
 Frequency:      1307.73                1319.22                1461.65
 Force Cnst:      1.2749                 1.2664                 1.3270
 Red. Mass:       1.2653                 1.2350                 1.0542
 IR Active:          YES                    YES                    YES
 IR Intens:       42.296                  8.785                  0.000
 Raman Active:       YES                    YES                    YES
               X      Y      Z        X      Y      Z        X      Y      Z
 Si         0.001  0.013 -0.000    0.000 -0.000 -0.003    0.000  0.000 -0.000
 C         -0.021 -0.007  0.007   -0.077 -0.011  0.029    0.005 -0.037 -0.000
 H         -0.001 -0.025 -0.000   -0.000  0.000 -0.016   -0.000  0.000 -0.000
 C         -0.040 -0.103 -0.037    0.029  0.072  0.029   -0.035  0.014  0.000
 C          0.053 -0.072  0.029    0.048 -0.061  0.029    0.030  0.023 -0.000
 H          0.084  0.027  0.008    0.325  0.046  0.032   -0.060  0.419 -0.000
 H          0.066 -0.021 -0.047    0.273 -0.078 -0.168    0.068  0.043 -0.264
 H          0.069  0.045 -0.037    0.241  0.151 -0.168   -0.078  0.023  0.264
 H         -0.022  0.385  0.211    0.010 -0.284 -0.168    0.059  0.056  0.264
 H          0.279  0.259  0.215   -0.204 -0.198 -0.168    0.004 -0.081 -0.264
 H          0.160  0.411 -0.041   -0.123 -0.305  0.032    0.393 -0.158  0.000
 H         -0.070  0.303 -0.167   -0.069  0.275 -0.168   -0.072  0.037 -0.264
 H         -0.271  0.136 -0.174   -0.251  0.133 -0.168    0.019 -0.079  0.264
 H         -0.210  0.284  0.033   -0.203  0.258  0.032   -0.334 -0.262  0.000
 TransDip   0.010  0.208  0.000    0.000  0.000 -0.095   -0.000  0.000  0.000

 Mode:                22                     23                     24
 Frequency:      1467.78                1467.79                1475.66
 Force Cnst:      1.3345                 1.3345                 1.3438
 Red. Mass:       1.0513                 1.0513                 1.0474
 IR Active:          YES                    YES                    YES
 IR Intens:        0.039                  0.040                  4.612
 Raman Active:       YES                    YES                    YES
               X      Y      Z        X      Y      Z        X      Y      Z
 Si         0.000  0.000 -0.000    0.000 -0.000  0.000   -0.006 -0.005  0.000
 C         -0.016  0.002 -0.044   -0.002 -0.016 -0.013    0.000 -0.024 -0.013
 H          0.008  0.003  0.000    0.003 -0.008 -0.000    0.022  0.019 -0.000
 C          0.006 -0.015  0.033    0.015  0.006 -0.032   -0.021  0.005  0.014
 C          0.010  0.012  0.011   -0.012  0.010  0.045   -0.036 -0.028 -0.001
 H         -0.256 -0.090 -0.038   -0.102  0.171 -0.011   -0.127  0.283 -0.012
 H          0.264 -0.258  0.350    0.112 -0.054 -0.022    0.131 -0.042 -0.094
 H          0.203  0.316  0.283    0.019  0.102  0.206   -0.008  0.106  0.286
 H         -0.154  0.226 -0.320    0.110 -0.255  0.142   -0.017  0.136  0.067
 H          0.267  0.110 -0.156   -0.256 -0.052  0.314    0.105 -0.024 -0.266
 H         -0.197 -0.136  0.029   -0.056  0.230 -0.028    0.209 -0.181  0.013
 H         -0.053 -0.071 -0.194   -0.075 -0.372 -0.292    0.103 -0.055  0.361
 H          0.103 -0.038  0.036    0.374  0.001 -0.348   -0.038  0.113 -0.352
 H         -0.186 -0.062  0.010   -0.131  0.240  0.039    0.443  0.342 -0.001
 TransDip   0.006  0.003 -0.000    0.003 -0.006 -0.000    0.052  0.044 -0.000

 Mode:                25                     26                     27
 Frequency:      1475.66                1485.15                2261.38
 Force Cnst:      1.3438                 1.3584                 3.1341
 Red. Mass:       1.0474                 1.0453                 1.0402
 IR Active:          YES                    YES                    YES
 IR Intens:        4.617                 12.939                173.943
 Raman Active:       YES                    YES                    YES
               X      Y      Z        X      Y      Z        X      Y      Z
 Si        -0.005  0.006 -0.000    0.000  0.000  0.009    0.000  0.000 -0.035
 C         -0.007  0.038 -0.008    0.012  0.002  0.031   -0.000 -0.000 -0.000
 H          0.019 -0.022  0.000   -0.000 -0.000  0.006   -0.000  0.000  0.999
 C         -0.037  0.016 -0.007   -0.004 -0.011  0.031    0.000  0.000 -0.000
 C         -0.003  0.002  0.015   -0.007  0.009  0.031    0.000 -0.000 -0.000
 H          0.013 -0.477 -0.008    0.211  0.030  0.028    0.006  0.001 -0.004
 H         -0.039 -0.095  0.362   -0.219  0.195 -0.238    0.001 -0.003 -0.003
 H          0.131  0.034 -0.242   -0.156 -0.249 -0.238    0.000  0.003 -0.003
 H          0.101  0.025  0.368   -0.137  0.260 -0.238    0.003 -0.002 -0.003
 H         -0.057 -0.121 -0.263    0.279  0.092 -0.238   -0.003  0.001 -0.003
 H          0.477 -0.141 -0.007   -0.079 -0.198  0.028   -0.002 -0.006 -0.004
 H         -0.025 -0.124 -0.100   -0.060 -0.288 -0.238    0.002  0.002 -0.003
 H          0.124  0.004 -0.127    0.293 -0.011 -0.238   -0.003 -0.001 -0.003
 H         -0.046  0.093  0.015   -0.131  0.168  0.028   -0.004  0.005 -0.004
 TransDip   0.044 -0.053 -0.000    0.000  0.000 -0.115   -0.000 -0.000 -0.422

 Mode:                28                     29                     30
 Frequency:      3067.46                3068.11                3068.12
 Force Cnst:      5.7408                 5.7446                 5.7446
 Red. Mass:       1.0355                 1.0358                 1.0358
 IR Active:          YES                    YES                    YES
 IR Intens:        2.697                  8.247                  8.231
 Raman Active:       YES                    YES                    YES
               X      Y      Z        X      Y      Z        X      Y      Z
 Si         0.000 -0.000  0.000    0.001  0.001  0.000    0.001 -0.001 -0.000
 C          0.027  0.004 -0.011   -0.027 -0.003  0.011   -0.026 -0.004  0.011
 H         -0.000  0.000 -0.001   -0.001 -0.002 -0.000   -0.002  0.001  0.000
 C         -0.010 -0.025 -0.011   -0.014 -0.034 -0.015    0.004  0.009  0.004
 C         -0.017  0.021 -0.011    0.006 -0.007  0.004   -0.022  0.029 -0.015
 H         -0.003 -0.000  0.346    0.002  0.000 -0.349    0.002  0.000 -0.348
 H         -0.115 -0.285 -0.109    0.112  0.282  0.109    0.115  0.286  0.110
 H         -0.190  0.242 -0.110    0.191 -0.244  0.111    0.185 -0.238  0.108
 H          0.302  0.043 -0.109    0.413  0.057 -0.149   -0.119 -0.017  0.043
 H         -0.188  0.240 -0.109   -0.259  0.330 -0.150    0.069 -0.087  0.040
 H          0.001  0.002  0.343    0.001  0.003  0.477   -0.000 -0.001 -0.132
 H          0.307  0.044 -0.110   -0.111 -0.015  0.040    0.411  0.060 -0.149
 H         -0.116 -0.287 -0.110    0.039  0.096  0.037   -0.157 -0.387 -0.149
 H          0.002 -0.002  0.349   -0.001  0.001 -0.123    0.002 -0.002  0.476
 TransDip  -0.000  0.001 -0.053   -0.056 -0.073 -0.000   -0.073  0.056  0.000

 Mode:                31                     32                     33
 Frequency:      3158.96                3158.97                3160.33
 Force Cnst:      6.4695                 6.4695                 6.4707
 Red. Mass:       1.1003                 1.1003                 1.0996
 IR Active:          YES                    YES                    YES
 IR Intens:        1.696                  1.681                 27.353
 Raman Active:       YES                    YES                    YES
               X      Y      Z        X      Y      Z        X      Y      Z
 Si         0.000  0.000 -0.000   -0.000  0.000 -0.000   -0.000 -0.000 -0.001
 C          0.012 -0.004  0.029   -0.023 -0.006 -0.064   -0.018 -0.003 -0.049
 H          0.000  0.000  0.000   -0.000  0.000  0.000    0.000  0.000  0.009
 C          0.010  0.024 -0.070    0.005 -0.005  0.006    0.007  0.017 -0.049
 C         -0.013  0.008  0.040   -0.010  0.019  0.057    0.011 -0.015 -0.050
 H          0.011 -0.000 -0.268   -0.023 -0.004  0.585   -0.020 -0.003  0.459
 H         -0.035 -0.090 -0.026    0.123  0.299  0.097    0.090  0.217  0.070
 H         -0.114  0.141 -0.057    0.175 -0.221  0.083    0.146 -0.183  0.070
 H         -0.333 -0.050  0.100   -0.016 -0.004  0.008   -0.231 -0.035  0.069
 H          0.201 -0.259  0.097   -0.046  0.062 -0.026    0.142 -0.186  0.070
 H          0.010  0.024  0.642    0.001 -0.003 -0.059    0.008  0.019  0.457
 H          0.228  0.030 -0.071    0.242  0.033 -0.071   -0.233 -0.031  0.070
 H         -0.057 -0.142 -0.043   -0.109 -0.279 -0.090    0.086  0.220  0.070
 H         -0.010  0.011 -0.370   -0.012  0.017 -0.525    0.013 -0.016  0.460
 TransDip   0.012  0.040 -0.000   -0.040  0.012 -0.000   -0.000 -0.000 -0.168

 Mode:                34                     35                     36
 Frequency:      3163.73                3164.20                3164.22
 Force Cnst:      6.4914                 6.4904                 6.4905
 Red. Mass:       1.1008                 1.1003                 1.1003
 IR Active:          YES                    YES                    YES
 IR Intens:        0.001                 16.132                 16.156
 Raman Active:       YES                    YES                    YES
               X      Y      Z        X      Y      Z        X      Y      Z
 Si        -0.000  0.000 -0.000   -0.000 -0.001  0.000   -0.001  0.000 -0.000
 C         -0.008  0.053 -0.000    0.006 -0.054 -0.004   -0.009  0.050 -0.004
 H          0.000 -0.000  0.000    0.001  0.001 -0.000    0.001 -0.001  0.000
 C          0.049 -0.020 -0.000   -0.017  0.004  0.006   -0.067  0.028 -0.001
 C         -0.042 -0.033  0.000   -0.056 -0.045 -0.002   -0.018 -0.011  0.006
 H         -0.002  0.011  0.001    0.000 -0.012  0.035   -0.003  0.011  0.038
 H         -0.158 -0.352 -0.135    0.169  0.377  0.143   -0.142 -0.317 -0.122
 H          0.250 -0.295  0.135   -0.239  0.281 -0.130    0.256 -0.301  0.137
 H         -0.375 -0.068  0.133    0.156  0.028 -0.054    0.511  0.094 -0.182
 H         -0.224  0.309 -0.133    0.055 -0.077  0.034    0.313 -0.434  0.186
 H          0.010 -0.004  0.000   -0.004 -0.000 -0.051   -0.015  0.006  0.012
 H          0.382  0.039 -0.134    0.508  0.052 -0.179    0.181  0.019 -0.062
 H          0.129  0.360  0.134    0.178  0.498  0.184    0.040  0.112  0.043
 H         -0.009 -0.007 -0.001   -0.012 -0.010  0.014   -0.005 -0.001 -0.050
 TransDip  -0.000  0.001 -0.000   -0.075 -0.105  0.000   -0.105  0.075 -0.000

 STANDARD THERMODYNAMIC QUANTITIES AT   298.15 K  AND     1.00 ATM

   This Molecule has  0 Imaginary Frequencies
   Zero point vibrational energy:       75.544 kcal/mol

   Atom    1 Element Si Has Mass   27.97693
   Atom    2 Element C  Has Mass   12.00000
   Atom    3 Element H  Has Mass    1.00783
   Atom    4 Element C  Has Mass   12.00000
   Atom    5 Element C  Has Mass   12.00000
   Atom    6 Element H  Has Mass    1.00783
   Atom    7 Element H  Has Mass    1.00783
   Atom    8 Element H  Has Mass    1.00783
   Atom    9 Element H  Has Mass    1.00783
   Atom   10 Element H  Has Mass    1.00783
   Atom   11 Element H  Has Mass    1.00783
   Atom   12 Element H  Has Mass    1.00783
   Atom   13 Element H  Has Mass    1.00783
   Atom   14 Element H  Has Mass    1.00783
   Molecular Mass:    74.055230 amu
   Principal axes and moments of inertia in amu*Bohr^2:
                             1           2           3
    Eigenvalues --      340.36940   340.37011   575.18799
          X               0.99999    -0.00318     0.00000
          Y               0.00318     0.99999     0.00000
          Z              -0.00000    -0.00000     1.00000
   Rotational Symmetry Number is   1
   The Molecule is an Asymmetric Top
   Translational Enthalpy:        0.889 kcal/mol
   Rotational Enthalpy:           0.889 kcal/mol
   Vibrational Enthalpy:         78.436 kcal/mol
   gas constant (RT):             0.592 kcal/mol
   Translational Entropy:        38.823  cal/mol.K
   Rotational Entropy:           25.702  cal/mol.K
   Vibrational Entropy:          16.788  cal/mol.K

   Total Enthalpy:               80.806 kcal/mol
   Total Entropy:                81.313  cal/mol.K
Archival summary:
1\1\mm2.localdomain\FREQ\MP2\6-311+G**\i1310\xuedong\WedMay1509:55:582019WedMay1509:55:582019\0\\#,FREQ,MP2,6-311+G**,\\0,1\Si\H,1,1.48529\C,1,1.87936,2,108.87\H,3,1.09448,1,111.33,2,-60.1303,0\H,3,1.09448,1,111.33,2,60.1531,0\H,3,1.09511,1,110.804,2,-179.989,0\C,1,1.87936,2,108.869,3,120,0\H,7,1.09448,1,111.33,2,60.1314,0\H,7,1.09448,1,111.33,2,-60.1517,0\H,7,1.09511,1,110.804,2,179.99,0\C,1,1.87936,2,108.87,3,-120,0\H,11,1.09448,1,111.33,2,60.139,0\H,11,1.09448,1,111.33,2,-60.1445,0\H,11,1.09511,1,110.803,2,179.997,0\\HF=-408.425118\MP2=-409.000388\\@

 Total job time:  1571.41s(wall), 3917.65s(cpu) 
 Wed May 15 09:55:58 2019

        *************************************************************
        *                                                           *
        *  Thank you very much for using Q-Chem.  Have a nice day.  *
        *                                                           *
        *************************************************************


