
Running Job 1 of 2 28.freq.qcinp
qchem 28.freq.qcinp_33083.0 /scratch/xuedong/qchem33083/ 1
/home/qwang/software/qchem5.1/exe/qcprog.exe_s 28.freq.qcinp_33083.0 /scratch/xuedong/qchem33083/
Check license passed

                  Welcome to Q-Chem
     A Quantum Leap Into The Future Of Chemistry


 Q-Chem 5.1, Q-Chem, Inc., Pleasanton, CA (2018)

 Yihan Shao,  Zhengting Gan,  E. Epifanovsky,  A. T. B. Gilbert,  M. Wormit,  
 J. Kussmann,  A. W. Lange,  A. Behn,  Jia Deng,  Xintian Feng,  D. Ghosh,  
 M. Goldey,  P. R. Horn,  L. D. Jacobson,  I. Kaliman,  T. Kus,  A. Landau,  
 Jie Liu,  E. I. Proynov,  R. M. Richard,  R. P. Steele,  E. J. Sundstrom,  
 H. L. Woodcock III,  P. M. Zimmerman,  D. Zuev,  B. Albrecht,  E. Alguire,  
 S. A. Baeppler,  D. Barton,  Z. Benda,  Y. A. Bernard,  E. J. Berquist,  
 K. B. Bravaya,  H. Burton,  D. Casanova,  Chun-Min Chang,  Yunqing Chen,  
 A. Chien,  K. D. Closser,  M. P. Coons,  S. Coriani,  S. Dasgupta,  
 A. L. Dempwolff,  M. Diedenhofen,  Hainam Do,  R. G. Edgar,  Po-Tung Fang,  
 S. Faraji,  S. Fatehi,  Qingguo Feng,  K. D. Fenk,  J. Fosso-Tande,  
 Qinghui Ge,  A. Ghysels,  G. Gidofalvi,  J. Gomes,  J. Gonthier,  A. Gunina,  
 D. Hait,  M. W. D. Hanson-Heine,  P. H. P. Harbach,  A. W. Hauser,  
 J. E. Herr,  E. G. Hohenstein,  Z. C. Holden,  Kerwin Hui,  B. C. Huynh,  
 T.-C. Jagau,  Hyunjun Ji,  B. Kaduk,  K. Khistyaev,  Jaehoon Kim,  
 P. Klunzinger,  K. Koh,  D. Kosenkov,  L. Koulias,  T. Kowalczyk,  
 C. M. Krauter,  A. Kunitsa,  Ka Un Lao,  A. Laurent,  K. V. Lawler,  
 Joonho Lee,  D. Lefrancois,  S. Lehtola,  D. S. Levine,  Yi-Pei Li,  
 You-Sheng Lin,  Fenglai Liu,  E. Livshits,  A. Luenser,  P. Manohar,  
 E. Mansoor,  S. F. Manzer,  Shan-Ping Mao,  Yuezhi Mao,  N. Mardirossian,  
 A. V. Marenich,  T. Markovich,  L. A. Martinez-Martinez,  S. A. Maurer,  
 N. J. Mayhall,  S. C. McKenzie,  J.-M. Mewes,  A. F. Morrison,  
 J. W. Mullinax,  K. Nanda,  T. S. Nguyen-Beck,  R. Olivares-Amaya,  
 J. A. Parkhill,  T. M. Perrine,  F. Plasser,  P. Pokhilko,  S. Prager,  
 A. Prociuk,  E. Ramos,  D. R. Rehn,  F. Rob,  M. Schneider,  N. Sergueev,  
 S. M. Sharada,  S. Sharma,  D. W. Small,  T. Stauch,  T. Stein,  
 Yu-Chuan Su,  A. J. W. Thom,  A. Tkatchenko,  T. Tsuchimochi,  N. M. Tubman,  
 L. Vogt,  M. L. Vidal,  O. Vydrov,  M. A. Watson,  J. Wenzel,  
 M. de Wergifosse,  T. A. Wesolowski,  A. White,  J. Witte,  A. Yamada,  
 Jun Yang,  K. Yao,  S. Yeganeh,  S. R. Yost,  Zhi-Qiang You,  A. Zech,  
 Igor Ying Zhang,  Xing Zhang,  Yan Zhao,  Ying Zhu,  B. R. Brooks,  
 G. K. L. Chan,  C. J. Cramer,  M. S. Gordon,  W. J. Hehre,  A. Klamt,  
 M. W. Schmidt,  C. D. Sherrill,  D. G. Truhlar,  A. Aspuru-Guzik,  R. Baer,  
 A. T. Bell,  N. A. Besley,  Jeng-Da Chai,  R. A. DiStasio Jr.,  A. Dreuw,  
 B. D. Dunietz,  T. R. Furlani,  Chao-Ping Hsu,  Yousung Jung,  Jing Kong,  
 D. S. Lambrecht,  WanZhen Liang,  C. Ochsenfeld,  V. A. Rassolov,  
 L. V. Slipchenko,  J. E. Subotnik,  T. Van Voorhis,  J. M. Herbert,  
 A. I. Krylov,  P. M. W. Gill,  M. Head-Gordon

 Contributors to earlier versions of Q-Chem not listed above: 
 R. D. Adamson,  B. Austin,  J. Baker,  G. J. O. Beran,  K. Brandhorst,  
 S. T. Brown,  E. F. C. Byrd,  A. K. Chakraborty,  C.-L. Cheng,  
 Siu Hung Chien,  D. M. Chipman,  D. L. Crittenden,  H. Dachsel,  
 R. J. Doerksen,  A. D. Dutoi,  L. Fusti-Molnar,  W. A. Goddard III,  
 A. Golubeva-Zadorozhnaya,  S. R. Gwaltney,  G. Hawkins,  A. Heyden,  
 S. Hirata,  G. Kedziora,  F. J. Keil,  C. Kelley,  Jihan Kim,  R. A. King,  
 R. Z. Khaliullin,  P. P. Korambath,  W. Kurlancheek,  A. M. Lee,  M. S. Lee,  
 S. V. Levchenko,  Ching Yeh Lin,  D. Liotard,  R. C. Lochan,  I. Lotan,  
 P. E. Maslen,  N. Nair,  D. P. O'Neill,  D. Neuhauser,  E. Neuscamman,  
 C. M. Oana,  R. Olson,  B. Peters,  R. Peverati,  P. A. Pieniazek,  
 Y. M. Rhee,  J. Ritchie,  M. A. Rohrdanz,  E. Rosta,  N. J. Russ,  
 H. F. Schaefer III,  N. E. Schultz,  N. Shenvi,  A. C. Simmonett,  A. Sodt,  
 D. Stuck,  K. S. Thanthiriwatte,  V. Vanovschi,  Tao Wang,  A. Warshel,  
 C. F. Williams,  Q. Wu,  X. Xu,  W. Zhang

 Please cite Q-Chem as follows:
 Y. Shao et al., Mol. Phys. 113, 184-215 (2015)
 DOI: 10.1080/00268976.2014.952696

 Q-Chem 5.1.0 for Intel X86 EM64T Linux

 Parts of Q-Chem use Armadillo 8.300.2 (Tropical Shenanigans).
 http://arma.sourceforge.net/

 Q-Chem begins on Tue Sep  3 21:09:22 2019  

Host: 
0

     Scratch files written to /scratch/xuedong/qchem33083//
 May118 |scratch|qcdevops|jenkins|workspace|build_RNUM 6581   
Processing $rem in /home/qwang/software/qchem5.1/config/preferences.
 MEM_TOTAL  2000 
Core orbitals will be frozen

Checking the input file for inconsistencies... 	...done.

--------------------------------------------------------------
User input:
--------------------------------------------------------------
$molecule
0 1
Si       -0.0000646104    0.0000929964    0.0000000000
C        -0.6180988645   -0.8981500444   -1.5419246613
C         1.8882533996    0.0243402580    0.0000000000
C        -0.6180988645   -0.8981500444    1.5419246613
C        -0.6523515532    1.7723397306    0.0000000000
H        -1.7119250636   -0.9295147526   -1.5720520332
H        -0.2565613674   -1.9309769037   -1.5720136144
H        -0.2760966906   -0.4011710838   -2.4553754470
H         2.2791711680    0.5393910015    0.8833189216
H         2.2988299198   -0.9904368396    0.0000000000
H         2.2791711680    0.5393910015   -0.8833189216
H        -0.2760966906   -0.4011710838    2.4553754470
H        -0.2565613674   -1.9309769037    1.5720136144
H        -1.7119250636   -0.9295147526    1.5720520332
H        -0.3110520329    2.3215289308    0.8833187423
H        -1.7468447734    1.7930796995    0.0000000000
H        -0.3110520329    2.3215289308   -0.8833187423
$end

$rem
JOBTYPE  =  opt
METHOD  =  MP2
BASIS  =  6-311G+(d,p)
SCF_MAX_CYCLES  =  200
GEOM_OPT_MAX_CYCLES  =  300
GEOM_OPT_TOL_DISPLACEMENT = 120
GEOM_OPT_TOL_ENERGY = 10
GEOM_OPT_TOL_GRADIENT = 20
$end
--------------------------------------------------------------
 ----------------------------------------------------------------
             Standard Nuclear Orientation (Angstroms)
    I     Atom           X                Y                Z
 ----------------------------------------------------------------
    1      Si     -0.0000049953     0.0000063016    -0.0000000000
    2      C       1.0447162463     0.3120390350    -1.5419246613
    3      C      -1.4860116558     1.1653890893    -0.0000000000
    4      C       1.0447162464     0.3120390351     1.5419246613
    5      C      -0.6034166192    -1.7894715984     0.0000000000
    6      H       1.9163616247    -0.3495301851    -1.5720520332
    7      H       1.4108597460     1.3432420319    -1.5720136144
    8      H       0.4666497132     0.1394335382    -2.4553754470
    9      H      -2.1135120757     1.0093852656     0.8833189216
   10      H      -1.1693843701     2.2132883205    -0.0000000000
   11      H      -2.1135120758     1.0093852656    -0.8833189216
   12      H       0.4666497133     0.1394335382     2.4553754470
   13      H       1.4108597460     1.3432420319     1.5720136144
   14      H       1.9163616248    -0.3495301851     1.5720520332
   15      H      -1.2136797932    -2.0031840187     0.8833187423
   16      H       0.2360705684    -2.4920431729     0.0000000000
   17      H      -1.2136797932    -2.0031840187    -0.8833187423
 ----------------------------------------------------------------
 Molecular Point Group                 Cs    NOp =  2
 Largest Abelian Subgroup              Cs    NOp =  2
 Nuclear Repulsion Energy =   245.0177966538 hartrees
 There are       25 alpha and       25 beta electrons
 Requested basis set is 6-311+G(d,p)
 There are 85 shells and 190 basis functions

 Total QAlloc Memory Limit   2000 MB
 Mega-Array Size       188 MB
 MEM_STATIC part       192 MB
 A cutoff of  1.0D-11 yielded   3457 shell pairs
 There are     17754 function pairs (     18744 Cartesian)
 
 -------------------------------------------------------
 OpenMP Integral Computing Module                       
 Release: version 1.0, May 2013, Q-Chem Inc. Pittsburgh 
 -------------------------------------------------------
 Integral Job Info:
 Integral job number is                      11
 Integral operator is                         1
 short-range coefficients                     0
 long-range coefficients              100000000
 Omega coefficients                           0
 if combine SR and LR in K                    0
 Integral screening is                        0
 Integral computing path is                   2
 max size of driver memory is            800000
 size of driver memory is                593474
 size of scratch memory is              4204008
 max col of scratch BK array               1296
 max len of scratch array in speh3          155
 max len of scratch index in speh4           18
 max int batch size is                      520
 min int batch size is                       52
 fixed nKL is                                52
 max L of basis functions is                  2
 order of int derivative is                   0
 number of shells is                         85
 number of basis is                         195
 number of cartesian basis is               195
 number of contracted shell pairs          3457
 number of primitive shell pairs           7695
 maxK2 (contraction) of shell pair           36
 max number of K2 of shell pair               1
 max number of CS2 of shell pair            468
 max number of PS2 of shell pair           1032
 mem total for path MDJ                  521318
 -------------------------------------------------------
 Smallest overlap matrix eigenvalue = 2.14E-04

 Scale SEOQF with 1.000000e-01/1.000000e-01/1.000000e-01

 Standard Electronic Orientation quadrupole field applied
 Guess from superposition of atomic densities
 Warning:  Energy on first SCF cycle will be non-variational
 SAD guess density has 50.000000 electrons

 -----------------------------------------------------------------------
  General SCF calculation program by
  Eric Jon Sundstrom, Paul Horn, Yuezhi Mao, Dmitri Zuev, Alec White,
  David Stuck, Shaama M.S., Shane Yost, Joonho Lee, David Small,
  Daniel Levine, Susi Lehtola, Hugh Burton, Evgeny Epifanovsky
 -----------------------------------------------------------------------
 Hartree-Fock
 using 4 threads for integral computing
 -------------------------------------------------------
 OpenMP Integral computing Module                
 Release: version 1.0, May 2013, Q-Chem Inc. Pittsburgh 
 -------------------------------------------------------
 A restricted SCF calculation will be
 performed using DIIS
 SCF converges when DIIS error is below 1.0e-08
 ---------------------------------------
  Cycle       Energy         DIIS error
 ---------------------------------------
    1    -448.7022440246      4.24e-02  
    2    -447.4180934202      3.22e-03  
    3    -447.4759725616      9.73e-04  
    4    -447.4816779225      3.38e-04  
    5    -447.4824533167      3.91e-05  
    6    -447.4824718591      8.09e-06  
    7    -447.4824723540      2.06e-06  
    8    -447.4824724033      2.50e-07  
    9    -447.4824724041      5.12e-08  
   10    -447.4824724041      1.31e-08  
   11    -447.4824724041      2.21e-09  Convergence criterion met
 ---------------------------------------
 SCF time:   CPU 17.54s  wall 5.00s 
 SCF   energy in the final basis set =     -447.4824724041
 Total energy in the final basis set =     -447.4824724041
 
 Components of the MP2 correlation energy:
        aaaa  correlation energy =        -0.0793895641 au
        abab  correlation energy =        -0.5700297623 au
        bbbb  correlation energy =        -0.0793895641 au
        non-Brillouin singles    =        -0.0000000000 au

 Total  MP2   correlation energy =                    -0.72880889 au
        MP2         total energy =                  -448.21128129 au
  Entering Z-vector solver.
   1         0           1      0.000192    0.000192
   2         0           1      0.000045    0.000045
   3         0           1      0.000006    0.000006
   4         0           1      0.000001    0.000001
   5         1           0      0.000000    0.000000    Roots Converged
 
 --------------------------------------------------------------
             Orbital Energies (a.u.) and Symmetries
 --------------------------------------------------------------
 
 Alpha MOs, Restricted
 -- Occupied --                  
-68.751 -11.195 -11.195 -11.195 -11.195  -6.097  -4.204  -4.204
  1 A'    1 A"    2 A'    3 A'    4 A'    5 A'    2 A"    6 A'                 
 -4.204  -0.972  -0.919  -0.919  -0.919  -0.623  -0.565  -0.565
  7 A'    8 A'    9 A'    3 A"   10 A'   11 A'   12 A'   13 A'                 
 -0.565  -0.546  -0.546  -0.526  -0.526  -0.526  -0.423  -0.423
  4 A"   14 A'    5 A"    6 A"    7 A"   15 A'   16 A'   17 A'                 
 -0.423
  8 A"                                                                         
 -- Virtual --                   
  0.051   0.074   0.074   0.074   0.116   0.116   0.116   0.130
 18 A'    9 A"   19 A'   20 A'   10 A"   21 A'   22 A'   11 A"                 
  0.130   0.148   0.156   0.156   0.156   0.182   0.182   0.182
 23 A'   24 A'   12 A"   13 A"   25 A'   14 A"   26 A'   27 A'                 
  0.189   0.189   0.189   0.219   0.269   0.269   0.273   0.273
 15 A"   28 A'   29 A'   30 A'   31 A'   16 A"   17 A"   32 A'                 
  0.273   0.300   0.300   0.300   0.348   0.348   0.348   0.367
 33 A'   34 A'   18 A"   35 A'   19 A"   36 A'   20 A"   37 A'                 
  0.390   0.390   0.390   0.473   0.473   0.480   0.480   0.480
 21 A"   38 A'   39 A'   22 A"   40 A'   23 A"   41 A'   42 A'                 
  0.488   0.640   0.640   0.640   0.652   0.679   0.679   0.679
 43 A'   44 A'   45 A'   24 A"   46 A'   25 A"   47 A'   26 A"                 
  0.705   0.705   0.705   0.786   0.839   0.839   0.859   0.859
 27 A"   48 A'   49 A'   50 A'   51 A'   28 A"   29 A"   52 A'                 
  0.859   0.898   0.898   0.898   0.925   0.925   0.928   0.973
 53 A'   30 A"   54 A'   31 A"   32 A"   55 A'   56 A'   33 A"                 
  0.973   0.973   1.069   1.115   1.115   1.115   1.161   1.161
 57 A'   58 A'   59 A'   60 A'   34 A"   61 A'   62 A'   35 A"                 
  1.161   1.293   1.293   1.293   1.386   1.386   1.484   1.484
 63 A'   36 A"   37 A"   64 A'   65 A'   38 A"   66 A'   39 A"                 
  1.484   1.729   1.729   1.729   1.732   1.755   1.755   1.755
 67 A'   68 A'   40 A"   41 A"   42 A"   69 A'   43 A"   70 A'                 
  1.822   1.822   1.849   1.849   1.849   1.877   1.892   1.892
 44 A"   71 A'   72 A'   45 A"   73 A'   74 A'   46 A"   75 A'                 
  1.892   1.995   1.995   1.995   2.012   2.012   2.012   2.095
 47 A"   48 A"   76 A'   49 A"   50 A"   77 A'   78 A'   51 A"                 
  2.095   2.100   2.100   2.100   2.323   2.365   2.365   2.365
 79 A'   80 A'   52 A"   81 A'   82 A'   53 A"   83 A'   84 A'                 
  2.481   2.481   2.481   2.512   2.512   2.571   2.571   2.571
 54 A"   55 A"   85 A'   56 A"   86 A'   87 A'   57 A"   88 A'                 
  2.736   2.736   2.792   2.795   2.795   2.795   2.888   2.888
 58 A"   89 A'   90 A'   59 A"   91 A'   92 A'   60 A"   93 A'                 
  2.888   2.920   2.920   2.920   2.938   2.938   2.938   2.957
 61 A"   94 A'   95 A'   62 A"   96 A'   63 A"   97 A'   64 A"                 
  2.957   2.983   2.983   2.983   3.093   3.270   3.270   3.270
 98 A'   65 A"   99 A'   66 A"  100 A'  101 A'   67 A"  102 A'                 
  3.494   3.708   3.708   3.708   4.139   4.139   4.139   4.157
103 A'   68 A"  104 A'  105 A'   69 A"   70 A"  106 A'  107 A'                 
  4.157   4.194   4.194   4.194   6.289  12.429  12.429  12.429
 71 A"  108 A'   72 A"  109 A'  110 A'   73 A"  111 A'  112 A'                 
 25.114  25.114  25.114  25.143 144.037
 74 A"  113 A'  114 A'  115 A'  116 A'                                         
 
 Beta MOs, Restricted
 -- Occupied --                  
-68.751 -11.195 -11.195 -11.195 -11.195  -6.097  -4.204  -4.204
  1 A'    1 A"    2 A'    3 A'    4 A'    5 A'    2 A"    6 A'                 
 -4.204  -0.972  -0.919  -0.919  -0.919  -0.623  -0.565  -0.565
  7 A'    8 A'    9 A'    3 A"   10 A'   11 A'   12 A'   13 A'                 
 -0.565  -0.546  -0.546  -0.526  -0.526  -0.526  -0.423  -0.423
  4 A"   14 A'    5 A"    6 A"    7 A"   15 A'   16 A'   17 A'                 
 -0.423
  8 A"                                                                         
 -- Virtual --                   
  0.051   0.074   0.074   0.074   0.116   0.116   0.116   0.130
 18 A'    9 A"   19 A'   20 A'   10 A"   21 A'   22 A'   11 A"                 
  0.130   0.148   0.156   0.156   0.156   0.182   0.182   0.182
 23 A'   24 A'   12 A"   13 A"   25 A'   14 A"   26 A'   27 A'                 
  0.189   0.189   0.189   0.219   0.269   0.269   0.273   0.273
 15 A"   28 A'   29 A'   30 A'   31 A'   16 A"   17 A"   32 A'                 
  0.273   0.300   0.300   0.300   0.348   0.348   0.348   0.367
 33 A'   34 A'   18 A"   35 A'   19 A"   36 A'   20 A"   37 A'                 
  0.390   0.390   0.390   0.473   0.473   0.480   0.480   0.480
 21 A"   38 A'   39 A'   22 A"   40 A'   23 A"   41 A'   42 A'                 
  0.488   0.640   0.640   0.640   0.652   0.679   0.679   0.679
 43 A'   44 A'   45 A'   24 A"   46 A'   25 A"   47 A'   26 A"                 
  0.705   0.705   0.705   0.786   0.839   0.839   0.859   0.859
 27 A"   48 A'   49 A'   50 A'   51 A'   28 A"   29 A"   52 A'                 
  0.859   0.898   0.898   0.898   0.925   0.925   0.928   0.973
 53 A'   30 A"   54 A'   31 A"   32 A"   55 A'   56 A'   33 A"                 
  0.973   0.973   1.069   1.115   1.115   1.115   1.161   1.161
 57 A'   58 A'   59 A'   60 A'   34 A"   61 A'   62 A'   35 A"                 
  1.161   1.293   1.293   1.293   1.386   1.386   1.484   1.484
 63 A'   36 A"   37 A"   64 A'   65 A'   38 A"   66 A'   39 A"                 
  1.484   1.729   1.729   1.729   1.732   1.755   1.755   1.755
 67 A'   68 A'   40 A"   41 A"   42 A"   69 A'   43 A"   70 A'                 
  1.822   1.822   1.849   1.849   1.849   1.877   1.892   1.892
 44 A"   71 A'   72 A'   45 A"   73 A'   74 A'   46 A"   75 A'                 
  1.892   1.995   1.995   1.995   2.012   2.012   2.012   2.095
 47 A"   48 A"   76 A'   49 A"   50 A"   77 A'   78 A'   51 A"                 
  2.095   2.100   2.100   2.100   2.323   2.365   2.365   2.365
 79 A'   80 A'   52 A"   81 A'   82 A'   53 A"   83 A'   84 A'                 
  2.481   2.481   2.481   2.512   2.512   2.571   2.571   2.571
 54 A"   55 A"   85 A'   56 A"   86 A'   87 A'   57 A"   88 A'                 
  2.736   2.736   2.792   2.795   2.795   2.795   2.888   2.888
 58 A"   89 A'   90 A'   59 A"   91 A'   92 A'   60 A"   93 A'                 
  2.888   2.920   2.920   2.920   2.938   2.938   2.938   2.957
 61 A"   94 A'   95 A'   62 A"   96 A'   63 A"   97 A'   64 A"                 
  2.957   2.983   2.983   2.983   3.093   3.270   3.270   3.270
 98 A'   65 A"   99 A'   66 A"  100 A'  101 A'   67 A"  102 A'                 
  3.494   3.708   3.708   3.708   4.139   4.139   4.139   4.157
103 A'   68 A"  104 A'  105 A'   69 A"   70 A"  106 A'  107 A'                 
  4.157   4.194   4.194   4.194   6.289  12.429  12.429  12.429
 71 A"  108 A'   72 A"  109 A'  110 A'   73 A"  111 A'  112 A'                 
 25.114  25.114  25.114  25.143 144.037
 74 A"  113 A'  114 A'  115 A'  116 A'                                         
 --------------------------------------------------------------
 
          Ground-State Mulliken Net Atomic Charges

     Atom                 Charge (a.u.)
  ----------------------------------------
      1 Si                    1.023882
      2 C                    -0.739214
      3 C                    -0.739213
      4 C                    -0.739214
      5 C                    -0.739215
      6 H                     0.161081
      7 H                     0.161081
      8 H                     0.161081
      9 H                     0.161081
     10 H                     0.161082
     11 H                     0.161081
     12 H                     0.161081
     13 H                     0.161081
     14 H                     0.161081
     15 H                     0.161081
     16 H                     0.161081
     17 H                     0.161081
  ----------------------------------------
  Sum of atomic charges =    -0.000000

 -----------------------------------------------------------------
                    Cartesian Multipole Moments
 -----------------------------------------------------------------
    Charge (ESU x 10^10)
                 0.0000
    Dipole Moment (Debye)
         X      -0.0000      Y       0.0000      Z      -0.0000
       Tot       0.0000
    Quadrupole Moments (Debye-Ang)
        XX     -43.6315     XY      -0.0000     YY     -43.6315
        XZ       0.0000     YZ      -0.0000     ZZ     -43.6315
    Octopole Moments (Debye-Ang^2)
       XXX       1.5016    XXY      -3.2025    XYY       4.6104
       YYY       5.0283    XXZ       0.0000    XYZ       0.0000
       YYZ       0.0000    XZZ      -6.1122    YZZ      -1.8255
       ZZZ      -0.0000
    Hexadecapole Moments (Debye-Ang^3)
      XXXX    -336.9244   XXXY       0.7296   XXYY    -112.8192
      XYYY      -0.3139   YYYY    -338.1833   XXXZ      -0.0000
      XXYZ      -0.0000   XYYZ       0.0000   YYYZ       0.0000
      XXZZ    -113.0376   XYZZ      -0.4158   YYZZ    -111.7689
      XZZZ       0.0000   YZZZ      -0.0000   ZZZZ    -337.9641
 -----------------------------------------------------------------
 DrvMan is completing analytic gradient of the MP2 energy
 MP2 relaxed dipole moment
            1
    1  -0.0000074
    2   0.0000069
    3  -0.0000000
	Magnitude:	 0.000 au	 0.000 Debye
 MP2 energy read as -448.211281
 Full Analytical Gradient of MP2 Energy (in au.)
             1             2             3             4             5
    1   -0.00000079    0.00137890   -0.00196137    0.00137890   -0.00079615
    2    0.00000054    0.00041221    0.00153788    0.00041221   -0.00236183
    3   -0.00000000   -0.00203519    0.00000000    0.00203519   -0.00000000
             6             7             8             9            10
    1   -0.00021048    0.00000913    0.00041862    0.00003369   -0.00037599
    2    0.00033682   -0.00039734    0.00012495    0.00025461   -0.00026752
    3   -0.00023428   -0.00023437    0.00014864   -0.00038318   -0.00000000
            11            12            13            14            15
    1    0.00003369    0.00041862    0.00000913   -0.00021048    0.00016789
    2    0.00025461    0.00012495   -0.00039734    0.00033682   -0.00019451
    3    0.00038318   -0.00014864    0.00023437    0.00023428   -0.00038319
            16            17
    1   -0.00046119    0.00016789
    2    0.00001746   -0.00019451
    3    0.00000000    0.00038319
 Gradient time:  CPU 0.16 s  wall 0.11 s
 Geometry Optimization Parameters
   NAtoms,    NIC,     NZ,  NCons,   NDum,   NFix, NCnnct, MaxDiis
       17     116       0       0       0       0       0       0


** GEOMETRY OPTIMIZATION IN DELOCALIZED INTERNAL COORDINATES **
   Searching for a Minimum

   Optimization Cycle:   1

                       Coordinates (Angstroms)
     ATOM                X               Y               Z
      1  Si       -0.0000049953    0.0000063016    0.0000000000
      2  C         1.0447162464    0.3120390350   -1.5419246613
      3  C        -1.4860116558    1.1653890893    0.0000000000
      4  C         1.0447162464    0.3120390350    1.5419246613
      5  C        -0.6034166192   -1.7894715984    0.0000000000
      6  H         1.9163616248   -0.3495301851   -1.5720520332
      7  H         1.4108597460    1.3432420319   -1.5720136144
      8  H         0.4666497133    0.1394335382   -2.4553754470
      9  H        -2.1135120757    1.0093852656    0.8833189216
     10  H        -1.1693843701    2.2132883205    0.0000000000
     11  H        -2.1135120757    1.0093852656   -0.8833189216
     12  H         0.4666497133    0.1394335382    2.4553754470
     13  H         1.4108597460    1.3432420319    1.5720136144
     14  H         1.9163616248   -0.3495301851    1.5720520332
     15  H        -1.2136797932   -2.0031840187    0.8833187423
     16  H         0.2360705684   -2.4920431729    0.0000000000
     17  H        -1.2136797932   -2.0031840187   -0.8833187423
   Point Group: cs    Number of degrees of freedom:    25


   Energy is   -448.211281295


 Attempting to Generate Delocalized Internal Coordinates

  ***ERROR*** Wrong Number of Internal Coordinates
              Should be:  25  Found:  18
**WARNING** Problems with Internal Coordinates
  Switching to Cartesian Coordinates

 Translations and Rotations Projected Out of Hessian

 45 Hessian modes will be used to form the next step
  Hessian Eigenvalues:
     1.000000    1.000000    1.000000    1.000000    1.000000    1.000000
     1.000000    1.000000    1.000000    1.000000    1.000000    1.000000
     1.000000    1.000000    1.000000    1.000000    1.000000    1.000000
     1.000000    1.000000    1.000000    1.000000    1.000000    1.000000
     1.000000    1.000000    1.000000    1.000000    1.000000    1.000000
     1.000000    1.000000    1.000000    1.000000    1.000000    1.000000
     1.000000    1.000000    1.000000    1.000000    1.000000    1.000000
     1.000000    1.000000    1.000000

 Minimum Search - Taking Simple RFO Step
 Searching for Lamda that Minimizes Along All modes
 Value Taken    Lamda =  -0.00002740
 Step Taken.  Stepsize is  0.005235

                             Maximum     Tolerance    Cnvgd?
         Gradient           0.002362      0.000020      NO
         Displacement       0.002362      0.000120      NO
         Energy change     *********      0.000000      NO

 ----------------------------------------------------------------
             Standard Nuclear Orientation (Angstroms)
    I     Atom           X                Y                Z
 ----------------------------------------------------------------
    1      Si     -0.0000045798     0.0000060170     0.0000000000
    2      C       1.0439865864     0.3118209107    -1.5408477165
    3      C      -1.4849737730     1.1645753010     0.0000000000
    4      C       1.0439865864     0.3118209107     1.5408477165
    5      C      -0.6029953247    -1.7882218053     0.0000000000
    6      H       1.9164730029    -0.3497084192    -1.5719280619
    7      H       1.4108549172     1.3434522904    -1.5718895971
    8      H       0.4664281960     0.1393674198    -2.4554541007
    9      H      -2.1135299031     1.0092505345     0.8835216881
   10      H      -1.1691854120     2.2134298834     0.0000000000
   11      H      -2.1135299031     1.0092505345    -0.8835216881
   12      H       0.4664281960     0.1393674198     2.4554541007
   13      H       1.4108549172     1.3434522904     1.5718895971
   14      H       1.9164730029    -0.3497084192     1.5719280619
   15      H      -1.2137686346    -2.0030810904     0.8835215143
   16      H       0.2363146105    -2.4920524137     0.0000000000
   17      H      -1.2137686346    -2.0030810904    -0.8835215143
 ----------------------------------------------------------------
 Molecular Point Group                 Cs    NOp =  2
 Largest Abelian Subgroup              Cs    NOp =  2
 Nuclear Repulsion Energy =   245.0958586020 hartrees
 There are       25 alpha and       25 beta electrons
 Applying Cartesian multipole field
    Component          Value
    ---------          -----
     (2,0,0)        1.00000E-11
     (0,2,0)        2.00000E-11
     (0,0,2)       -3.00000E-11
 Requested basis set is 6-311+G(d,p)
 There are 85 shells and 190 basis functions
 A cutoff of  1.0D-11 yielded   3457 shell pairs
 There are     17754 function pairs (     18744 Cartesian)
 Smallest overlap matrix eigenvalue = 2.14E-04
 Guess MOs from SCF MO coefficient file
 Reading MOs from coefficient file
 Reading MOs from coefficient file

 -----------------------------------------------------------------------
  General SCF calculation program by
  Eric Jon Sundstrom, Paul Horn, Yuezhi Mao, Dmitri Zuev, Alec White,
  David Stuck, Shaama M.S., Shane Yost, Joonho Lee, David Small,
  Daniel Levine, Susi Lehtola, Hugh Burton, Evgeny Epifanovsky
 -----------------------------------------------------------------------
 Hartree-Fock
 using 4 threads for integral computing
 -------------------------------------------------------
 OpenMP Integral computing Module                
 Release: version 1.0, May 2013, Q-Chem Inc. Pittsburgh 
 -------------------------------------------------------
 A restricted SCF calculation will be
 performed using DIIS
 SCF converges when DIIS error is below 1.0e-08
 ---------------------------------------
  Cycle       Energy         DIIS error
 ---------------------------------------
    1    -447.4798587544      5.61e-05  
    2    -447.4824012624      7.32e-06  
    3    -447.4824016112      2.89e-06  
    4    -447.4824016551      7.39e-07  
    5    -447.4824016609      1.42e-07  
    6    -447.4824016612      3.72e-08  
    7    -447.4824016612      7.89e-09  Convergence criterion met
 ---------------------------------------
 SCF time:   CPU 17.33s  wall 4.00s 
 SCF   energy in the final basis set =     -447.4824016612
 Total energy in the final basis set =     -447.4824016612
 
 Components of the MP2 correlation energy:
        aaaa  correlation energy =        -0.0793997573 au
        abab  correlation energy =        -0.5701014763 au
        bbbb  correlation energy =        -0.0793997573 au
        non-Brillouin singles    =        -0.0000000000 au

 Total  MP2   correlation energy =                    -0.72890099 au
        MP2         total energy =                  -448.21130265 au
  Entering Z-vector solver.
   1         0           1      0.000192    0.000192
   2         0           1      0.000045    0.000045
   3         0           1      0.000006    0.000006
   4         0           1      0.000001    0.000001
   5         1           0      0.000000    0.000000    Roots Converged
 
 --------------------------------------------------------------
             Orbital Energies (a.u.) and Symmetries
 --------------------------------------------------------------
 
 Alpha MOs, Restricted
 -- Occupied --                  
-68.751 -11.195 -11.195 -11.195 -11.195  -6.097  -4.204  -4.204
  1 A'    1 A"    2 A'    3 A'    4 A'    5 A'    2 A"    6 A'                 
 -4.204  -0.972  -0.919  -0.919  -0.919  -0.624  -0.565  -0.565
  7 A'    8 A'    9 A'    3 A"   10 A'   11 A'   12 A'   13 A'                 
 -0.565  -0.546  -0.546  -0.525  -0.525  -0.525  -0.423  -0.423
  4 A"   14 A'    5 A"    6 A"    7 A"   15 A'    8 A"   16 A'                 
 -0.423
 17 A'                                                                         
 -- Virtual --                   
  0.051   0.074   0.074   0.074   0.116   0.116   0.116   0.130
 18 A'    9 A"   19 A'   20 A'   10 A"   21 A'   22 A'   11 A"                 
  0.130   0.148   0.156   0.156   0.156   0.182   0.182   0.182
 23 A'   24 A'   12 A"   13 A"   25 A'   14 A"   26 A'   27 A'                 
  0.189   0.189   0.189   0.219   0.269   0.269   0.274   0.274
 15 A"   28 A'   29 A'   30 A'   31 A'   16 A"   17 A"   32 A'                 
  0.274   0.300   0.300   0.300   0.348   0.348   0.348   0.367
 33 A'   34 A'   18 A"   35 A'   19 A"   36 A'   20 A"   37 A'                 
  0.390   0.390   0.390   0.474   0.474   0.480   0.480   0.480
 21 A"   38 A'   39 A'   22 A"   40 A'   23 A"   41 A'   42 A'                 
  0.488   0.640   0.640   0.640   0.652   0.679   0.679   0.679
 43 A'   44 A'   45 A'   24 A"   46 A'   25 A"   47 A'   26 A"                 
  0.705   0.705   0.705   0.786   0.839   0.839   0.859   0.859
 27 A"   48 A'   49 A'   50 A'   51 A'   28 A"   29 A"   52 A'                 
  0.859   0.898   0.898   0.898   0.926   0.926   0.928   0.973
 53 A'   30 A"   54 A'   31 A"   32 A"   55 A'   56 A'   33 A"                 
  0.973   0.973   1.069   1.116   1.116   1.116   1.161   1.161
 57 A'   58 A'   59 A'   60 A'   34 A"   61 A'   62 A'   35 A"                 
  1.161   1.293   1.293   1.293   1.386   1.386   1.484   1.484
 63 A'   36 A"   37 A"   64 A'   65 A'   38 A"   66 A'   39 A"                 
  1.484   1.729   1.729   1.729   1.732   1.755   1.755   1.755
 67 A'   68 A'   40 A"   41 A"   42 A"   69 A'   43 A"   70 A'                 
  1.823   1.823   1.849   1.849   1.849   1.877   1.891   1.891
 44 A"   71 A'   72 A'   45 A"   73 A'   74 A'   46 A"   75 A'                 
  1.891   1.995   1.995   1.995   2.012   2.012   2.012   2.095
 47 A"   48 A"   76 A'   49 A"   50 A"   77 A'   78 A'   51 A"                 
  2.095   2.100   2.100   2.100   2.324   2.365   2.365   2.365
 79 A'   80 A'   52 A"   81 A'   82 A'   53 A"   83 A'   84 A'                 
  2.480   2.480   2.480   2.512   2.512   2.570   2.570   2.570
 54 A"   55 A"   85 A'   56 A"   86 A'   87 A'   57 A"   88 A'                 
  2.736   2.736   2.791   2.794   2.794   2.794   2.887   2.887
 58 A"   89 A'   90 A'   59 A"   91 A'   92 A'   60 A"   93 A'                 
  2.887   2.919   2.919   2.919   2.938   2.938   2.938   2.957
 61 A"   94 A'   62 A"   95 A'   96 A'   63 A"   97 A'   64 A"                 
  2.957   2.983   2.983   2.983   3.092   3.270   3.270   3.270
 98 A'   65 A"   99 A'   66 A"  100 A'  101 A'   67 A"  102 A'                 
  3.495   3.710   3.710   3.710   4.137   4.137   4.137   4.155
103 A'   68 A"  104 A'  105 A'   69 A"   70 A"  106 A'  107 A'                 
  4.155   4.193   4.193   4.193   6.291  12.430  12.430  12.430
 71 A"  108 A'   72 A"  109 A'  110 A'   73 A"  111 A'  112 A'                 
 25.113  25.113  25.113  25.142 144.039
 74 A"  113 A'  114 A'  115 A'  116 A'                                         
 
 Beta MOs, Restricted
 -- Occupied --                  
-68.751 -11.195 -11.195 -11.195 -11.195  -6.097  -4.204  -4.204
  1 A'    1 A"    2 A'    3 A'    4 A'    5 A'    2 A"    6 A'                 
 -4.204  -0.972  -0.919  -0.919  -0.919  -0.624  -0.565  -0.565
  7 A'    8 A'    9 A'    3 A"   10 A'   11 A'   12 A'   13 A'                 
 -0.565  -0.546  -0.546  -0.525  -0.525  -0.525  -0.423  -0.423
  4 A"   14 A'    5 A"    6 A"    7 A"   15 A'    8 A"   16 A'                 
 -0.423
 17 A'                                                                         
 -- Virtual --                   
  0.051   0.074   0.074   0.074   0.116   0.116   0.116   0.130
 18 A'    9 A"   19 A'   20 A'   10 A"   21 A'   22 A'   11 A"                 
  0.130   0.148   0.156   0.156   0.156   0.182   0.182   0.182
 23 A'   24 A'   12 A"   13 A"   25 A'   14 A"   26 A'   27 A'                 
  0.189   0.189   0.189   0.219   0.269   0.269   0.274   0.274
 15 A"   28 A'   29 A'   30 A'   31 A'   16 A"   17 A"   32 A'                 
  0.274   0.300   0.300   0.300   0.348   0.348   0.348   0.367
 33 A'   34 A'   18 A"   35 A'   19 A"   36 A'   20 A"   37 A'                 
  0.390   0.390   0.390   0.474   0.474   0.480   0.480   0.480
 21 A"   38 A'   39 A'   22 A"   40 A'   23 A"   41 A'   42 A'                 
  0.488   0.640   0.640   0.640   0.652   0.679   0.679   0.679
 43 A'   44 A'   45 A'   24 A"   46 A'   25 A"   47 A'   26 A"                 
  0.705   0.705   0.705   0.786   0.839   0.839   0.859   0.859
 27 A"   48 A'   49 A'   50 A'   51 A'   28 A"   29 A"   52 A'                 
  0.859   0.898   0.898   0.898   0.926   0.926   0.928   0.973
 53 A'   30 A"   54 A'   31 A"   32 A"   55 A'   56 A'   33 A"                 
  0.973   0.973   1.069   1.116   1.116   1.116   1.161   1.161
 57 A'   58 A'   59 A'   60 A'   34 A"   61 A'   62 A'   35 A"                 
  1.161   1.293   1.293   1.293   1.386   1.386   1.484   1.484
 63 A'   36 A"   37 A"   64 A'   65 A'   38 A"   66 A'   39 A"                 
  1.484   1.729   1.729   1.729   1.732   1.755   1.755   1.755
 67 A'   68 A'   40 A"   41 A"   42 A"   69 A'   43 A"   70 A'                 
  1.823   1.823   1.849   1.849   1.849   1.877   1.891   1.891
 44 A"   71 A'   72 A'   45 A"   73 A'   74 A'   46 A"   75 A'                 
  1.891   1.995   1.995   1.995   2.012   2.012   2.012   2.095
 47 A"   48 A"   76 A'   49 A"   50 A"   77 A'   78 A'   51 A"                 
  2.095   2.100   2.100   2.100   2.324   2.365   2.365   2.365
 79 A'   80 A'   52 A"   81 A'   82 A'   53 A"   83 A'   84 A'                 
  2.480   2.480   2.480   2.512   2.512   2.570   2.570   2.570
 54 A"   55 A"   85 A'   56 A"   86 A'   87 A'   57 A"   88 A'                 
  2.736   2.736   2.791   2.794   2.794   2.794   2.887   2.887
 58 A"   89 A'   90 A'   59 A"   91 A'   92 A'   60 A"   93 A'                 
  2.887   2.919   2.919   2.919   2.938   2.938   2.938   2.957
 61 A"   94 A'   62 A"   95 A'   96 A'   63 A"   97 A'   64 A"                 
  2.957   2.983   2.983   2.983   3.092   3.270   3.270   3.270
 98 A'   65 A"   99 A'   66 A"  100 A'  101 A'   67 A"  102 A'                 
  3.495   3.710   3.710   3.710   4.137   4.137   4.137   4.155
103 A'   68 A"  104 A'  105 A'   69 A"   70 A"  106 A'  107 A'                 
  4.155   4.193   4.193   4.193   6.291  12.430  12.430  12.430
 71 A"  108 A'   72 A"  109 A'  110 A'   73 A"  111 A'  112 A'                 
 25.113  25.113  25.113  25.142 144.039
 74 A"  113 A'  114 A'  115 A'  116 A'                                         
 --------------------------------------------------------------
 
          Ground-State Mulliken Net Atomic Charges

     Atom                 Charge (a.u.)
  ----------------------------------------
      1 Si                    1.025723
      2 C                    -0.739779
      3 C                    -0.739778
      4 C                    -0.739779
      5 C                    -0.739779
      6 H                     0.161116
      7 H                     0.161116
      8 H                     0.161116
      9 H                     0.161116
     10 H                     0.161117
     11 H                     0.161116
     12 H                     0.161116
     13 H                     0.161116
     14 H                     0.161116
     15 H                     0.161116
     16 H                     0.161115
     17 H                     0.161116
  ----------------------------------------
  Sum of atomic charges =     0.000000

 -----------------------------------------------------------------
                    Cartesian Multipole Moments
 -----------------------------------------------------------------
    Charge (ESU x 10^10)
                 0.0000
    Dipole Moment (Debye)
         X      -0.0000      Y       0.0000      Z      -0.0000
       Tot       0.0000
    Quadrupole Moments (Debye-Ang)
        XX     -43.6279     XY      -0.0000     YY     -43.6278
        XZ       0.0000     YZ       0.0000     ZZ     -43.6278
    Octopole Moments (Debye-Ang^2)
       XXX       1.4952    XXY      -3.1887    XYY       4.5904
       YYY       5.0065    XXZ      -0.0000    XYZ      -0.0000
       YYZ      -0.0000    XZZ      -6.0858    YZZ      -1.8176
       ZZZ      -0.0000
    Hexadecapole Moments (Debye-Ang^3)
      XXXX    -336.7328   XXXY       0.7042   XXYY    -112.7374
      XYYY      -0.3029   YYYY    -337.9476   XXXZ       0.0000
      XXYZ       0.0000   XYYZ      -0.0000   YYYZ       0.0000
      XXZZ    -112.9482   XYZZ      -0.4013   YYZZ    -111.7238
      XZZZ       0.0000   YZZZ       0.0000   ZZZZ    -337.7358
 -----------------------------------------------------------------
 DrvMan is completing analytic gradient of the MP2 energy
 MP2 relaxed dipole moment
            1
    1  -0.0000061
    2   0.0000063
    3  -0.0000000
	Magnitude:	 0.000 au	 0.000 Debye
 MP2 energy read as -448.211303
 Full Analytical Gradient of MP2 Energy (in au.)
             1             2             3             4             5
    1   -0.00000034    0.00077488   -0.00110259    0.00077488   -0.00044753
    2    0.00000043    0.00023161    0.00086456    0.00023161   -0.00132754
    3   -0.00000000   -0.00114394   -0.00000000    0.00114394    0.00000000
             6             7             8             9            10
    1    0.00013951    0.00018209    0.00026071   -0.00024967   -0.00032850
    2    0.00011837   -0.00002251    0.00007782    0.00024969    0.00014942
    3   -0.00031068   -0.00031078   -0.00023740   -0.00007360    0.00000000
            11            12            13            14            15
    1   -0.00024967    0.00026071    0.00018209    0.00013951   -0.00007171
    2    0.00024969    0.00007782   -0.00002251    0.00011837   -0.00034580
    3    0.00007360    0.00023740    0.00031078    0.00031068   -0.00007365
            16            17
    1   -0.00019268   -0.00007171
    2   -0.00030521   -0.00034580
    3    0.00000000    0.00007365
 Gradient time:  CPU 0.18 s  wall 0.13 s
 Geometry Optimization Parameters
   NAtoms,    NIC,     NZ,  NCons,   NDum,   NFix, NCnnct, MaxDiis
       17     116       0       0       0       0       0       0

 Cartesian Hessian Update
 Hessian Updated using BFGS Update


** GEOMETRY OPTIMIZATION IN CARTESIAN COORDINATES **
   Searching for a Minimum

   Optimization Cycle:   2

                       Coordinates (Angstroms)
     ATOM                X               Y               Z
      1  Si       -0.0000045798    0.0000060170    0.0000000000
      2  C         1.0439865864    0.3118209107   -1.5408477165
      3  C        -1.4849737730    1.1645753010    0.0000000000
      4  C         1.0439865864    0.3118209107    1.5408477165
      5  C        -0.6029953247   -1.7882218053    0.0000000000
      6  H         1.9164730029   -0.3497084192   -1.5719280619
      7  H         1.4108549172    1.3434522904   -1.5718895971
      8  H         0.4664281960    0.1393674198   -2.4554541007
      9  H        -2.1135299031    1.0092505345    0.8835216881
     10  H        -1.1691854120    2.2134298834    0.0000000000
     11  H        -2.1135299031    1.0092505345   -0.8835216881
     12  H         0.4664281960    0.1393674198    2.4554541007
     13  H         1.4108549172    1.3434522904    1.5718895971
     14  H         1.9164730029   -0.3497084192    1.5719280619
     15  H        -1.2137686346   -2.0030810904    0.8835215143
     16  H         0.2363146105   -2.4920524137    0.0000000000
     17  H        -1.2137686346   -2.0030810904   -0.8835215143
   Point Group: cs    Number of degrees of freedom:    25


   Energy is   -448.211302652


 Translations and Rotations Projected Out of Hessian

  2 Hessian modes will be used to form the next step
  Hessian Eigenvalues:
     0.390155    1.163079

 Minimum Search - Taking Simple RFO Step
 Searching for Lamda that Minimizes Along All modes
 Value Taken    Lamda =  -0.00002403
 Step Taken.  Stepsize is  0.007841

                             Maximum     Tolerance    Cnvgd?
         Gradient           0.001328      0.000020      NO
         Displacement       0.003443      0.000120      NO
         Energy change     -0.000021      0.000000      NO

 ----------------------------------------------------------------
             Standard Nuclear Orientation (Angstroms)
    I     Atom           X                Y                Z
 ----------------------------------------------------------------
    1      Si     -0.0000040901     0.0000054533     0.0000000000
    2      C       1.0429230978     0.3115030274    -1.5392777705
    3      C      -1.4834606069     1.1633888109     0.0000000000
    4      C       1.0429230978     0.3115030274     1.5392777705
    5      C      -0.6023811340    -1.7863998806     0.0000000000
    6      H       1.9163347186    -0.3498855057    -1.5715386064
    7      H       1.4106415175     1.3435246156    -1.5715000117
    8      H       0.4660756431     0.1392621875    -2.4551944990
    9      H      -2.1132426601     1.0089298480     0.8836519461
   10      H      -1.1687587516     2.2132866635     0.0000000000
   11      H      -2.1132426601     1.0089298480    -0.8836519461
   12      H       0.4660756431     0.1392621875     2.4551944990
   13      H       1.4106415175     1.3435246156     1.5715000117
   14      H       1.9163347186    -0.3498855057     1.5715386064
   15      H      -1.2137044844    -2.0026552946     0.8836518293
   16      H       0.2365927684    -2.4916985296     0.0000000000
   17      H      -1.2137044844    -2.0026552946    -0.8836518293
 ----------------------------------------------------------------
 Molecular Point Group                 Cs    NOp =  2
 Largest Abelian Subgroup              Cs    NOp =  2
 Nuclear Repulsion Energy =   245.2291912494 hartrees
 There are       25 alpha and       25 beta electrons
 Applying Cartesian multipole field
    Component          Value
    ---------          -----
     (2,0,0)        1.00000E-11
     (0,2,0)        2.00000E-11
     (0,0,2)       -3.00000E-11
 Requested basis set is 6-311+G(d,p)
 There are 85 shells and 190 basis functions
 A cutoff of  1.0D-11 yielded   3457 shell pairs
 There are     17754 function pairs (     18744 Cartesian)
 Smallest overlap matrix eigenvalue = 2.14E-04
 Guess MOs from SCF MO coefficient file
 Reading MOs from coefficient file
 Reading MOs from coefficient file

 -----------------------------------------------------------------------
  General SCF calculation program by
  Eric Jon Sundstrom, Paul Horn, Yuezhi Mao, Dmitri Zuev, Alec White,
  David Stuck, Shaama M.S., Shane Yost, Joonho Lee, David Small,
  Daniel Levine, Susi Lehtola, Hugh Burton, Evgeny Epifanovsky
 -----------------------------------------------------------------------
 Hartree-Fock
 using 4 threads for integral computing
 -------------------------------------------------------
 OpenMP Integral computing Module                
 Release: version 1.0, May 2013, Q-Chem Inc. Pittsburgh 
 -------------------------------------------------------
 A restricted SCF calculation will be
 performed using DIIS
 SCF converges when DIIS error is below 1.0e-08
 ---------------------------------------
  Cycle       Energy         DIIS error
 ---------------------------------------
    1    -447.4799321644      7.27e-05  
    2    -447.4823116025      8.99e-06  
    3    -447.4823121176      3.42e-06  
    4    -447.4823121818      9.36e-07  
    5    -447.4823121910      1.80e-07  
    6    -447.4823121914      4.56e-08  
    7    -447.4823121915      1.00e-08  Convergence criterion met
 ---------------------------------------
 SCF time:   CPU 17.30s  wall 4.00s 
 SCF   energy in the final basis set =     -447.4823121915
 Total energy in the final basis set =     -447.4823121915
 
 Components of the MP2 correlation energy:
        aaaa  correlation energy =        -0.0794158359 au
        abab  correlation energy =        -0.5701736895 au
        bbbb  correlation energy =        -0.0794158359 au
        non-Brillouin singles    =        -0.0000000000 au

 Total  MP2   correlation energy =                    -0.72900536 au
        MP2         total energy =                  -448.21131755 au
  Entering Z-vector solver.
   1         0           1      0.000192    0.000192
   2         0           1      0.000046    0.000046
   3         0           1      0.000006    0.000006
   4         0           1      0.000002    0.000002
   5         1           0      0.000000    0.000000    Roots Converged
 
 --------------------------------------------------------------
             Orbital Energies (a.u.) and Symmetries
 --------------------------------------------------------------
 
 Alpha MOs, Restricted
 -- Occupied --                  
-68.750 -11.195 -11.195 -11.195 -11.195  -6.097  -4.204  -4.204
  1 A'    1 A"    2 A'    3 A'    4 A'    5 A'    2 A"    6 A'                 
 -4.204  -0.972  -0.919  -0.919  -0.919  -0.624  -0.564  -0.564
  7 A'    8 A'    9 A'    3 A"   10 A'   11 A'   12 A'   13 A'                 
 -0.564  -0.546  -0.546  -0.525  -0.525  -0.525  -0.424  -0.424
  4 A"   14 A'    5 A"    6 A"    7 A"   15 A'    8 A"   16 A'                 
 -0.424
 17 A'                                                                         
 -- Virtual --                   
  0.051   0.074   0.074   0.074   0.116   0.116   0.116   0.130
 18 A'    9 A"   19 A'   20 A'   10 A"   21 A'   22 A'   11 A"                 
  0.130   0.148   0.156   0.156   0.156   0.182   0.182   0.182
 23 A'   24 A'   12 A"   13 A"   25 A'   14 A"   26 A'   27 A'                 
  0.189   0.189   0.189   0.219   0.269   0.269   0.274   0.274
 15 A"   28 A'   29 A'   30 A'   31 A'   16 A"   17 A"   32 A'                 
  0.274   0.300   0.300   0.300   0.348   0.348   0.348   0.368
 33 A'   34 A'   18 A"   35 A'   19 A"   36 A'   20 A"   37 A'                 
  0.390   0.390   0.390   0.474   0.474   0.481   0.481   0.481
 21 A"   38 A'   39 A'   22 A"   40 A'   23 A"   41 A'   42 A'                 
  0.489   0.640   0.640   0.640   0.652   0.680   0.680   0.680
 43 A'   44 A'   45 A'   24 A"   46 A'   25 A"   47 A'   26 A"                 
  0.706   0.706   0.706   0.787   0.839   0.839   0.859   0.859
 27 A"   48 A'   49 A'   50 A'   51 A'   28 A"   29 A"   52 A'                 
  0.859   0.898   0.898   0.898   0.926   0.926   0.928   0.972
 53 A'   30 A"   54 A'   31 A"   32 A"   55 A'   56 A'   33 A"                 
  0.972   0.972   1.069   1.118   1.118   1.118   1.161   1.161
 57 A'   58 A'   59 A'   60 A'   34 A"   61 A'   62 A'   35 A"                 
  1.161   1.293   1.293   1.293   1.386   1.386   1.485   1.485
 63 A'   36 A"   37 A"   64 A'   65 A'   38 A"   66 A'   39 A"                 
  1.485   1.729   1.729   1.729   1.732   1.755   1.755   1.755
 67 A'   68 A'   40 A"   41 A"   42 A"   69 A'   43 A"   70 A'                 
  1.823   1.823   1.849   1.849   1.849   1.878   1.891   1.891
 44 A"   71 A'   72 A'   45 A"   73 A'   74 A'   46 A"   75 A'                 
  1.891   1.994   1.994   1.994   2.012   2.012   2.012   2.094
 47 A"   48 A"   76 A'   49 A"   50 A"   77 A'   78 A'   51 A"                 
  2.094   2.101   2.101   2.101   2.325   2.366   2.366   2.366
 79 A'   80 A'   52 A"   81 A'   82 A'   53 A"   83 A'   84 A'                 
  2.480   2.480   2.480   2.511   2.511   2.570   2.570   2.570
 54 A"   55 A"   85 A'   56 A"   86 A'   87 A'   57 A"   88 A'                 
  2.737   2.737   2.790   2.792   2.792   2.792   2.886   2.886
 58 A"   89 A'   90 A'   59 A"   91 A'   92 A'   60 A"   93 A'                 
  2.886   2.918   2.918   2.918   2.939   2.939   2.939   2.956
 61 A"   94 A'   95 A'   62 A"   96 A'   63 A"   97 A'   64 A"                 
  2.956   2.984   2.984   2.984   3.092   3.270   3.270   3.270
 98 A'   65 A"   99 A'   66 A"  100 A'  101 A'   67 A"  102 A'                 
  3.498   3.713   3.713   3.713   4.136   4.136   4.136   4.154
103 A'   68 A"  104 A'  105 A'   69 A"   70 A"  106 A'  107 A'                 
  4.154   4.191   4.191   4.191   6.292  12.431  12.431  12.431
 71 A"  108 A'   72 A"  109 A'  110 A'   73 A"  111 A'  112 A'                 
 25.111  25.111  25.111  25.140 144.041
 74 A"  113 A'  114 A'  115 A'  116 A'                                         
 
 Beta MOs, Restricted
 -- Occupied --                  
-68.750 -11.195 -11.195 -11.195 -11.195  -6.097  -4.204  -4.204
  1 A'    1 A"    2 A'    3 A'    4 A'    5 A'    2 A"    6 A'                 
 -4.204  -0.972  -0.919  -0.919  -0.919  -0.624  -0.564  -0.564
  7 A'    8 A'    9 A'    3 A"   10 A'   11 A'   12 A'   13 A'                 
 -0.564  -0.546  -0.546  -0.525  -0.525  -0.525  -0.424  -0.424
  4 A"   14 A'    5 A"    6 A"    7 A"   15 A'    8 A"   16 A'                 
 -0.424
 17 A'                                                                         
 -- Virtual --                   
  0.051   0.074   0.074   0.074   0.116   0.116   0.116   0.130
 18 A'    9 A"   19 A'   20 A'   10 A"   21 A'   22 A'   11 A"                 
  0.130   0.148   0.156   0.156   0.156   0.182   0.182   0.182
 23 A'   24 A'   12 A"   13 A"   25 A'   14 A"   26 A'   27 A'                 
  0.189   0.189   0.189   0.219   0.269   0.269   0.274   0.274
 15 A"   28 A'   29 A'   30 A'   31 A'   16 A"   17 A"   32 A'                 
  0.274   0.300   0.300   0.300   0.348   0.348   0.348   0.368
 33 A'   34 A'   18 A"   35 A'   19 A"   36 A'   20 A"   37 A'                 
  0.390   0.390   0.390   0.474   0.474   0.481   0.481   0.481
 21 A"   38 A'   39 A'   22 A"   40 A'   23 A"   41 A'   42 A'                 
  0.489   0.640   0.640   0.640   0.652   0.680   0.680   0.680
 43 A'   44 A'   45 A'   24 A"   46 A'   25 A"   47 A'   26 A"                 
  0.706   0.706   0.706   0.787   0.839   0.839   0.859   0.859
 27 A"   48 A'   49 A'   50 A'   51 A'   28 A"   29 A"   52 A'                 
  0.859   0.898   0.898   0.898   0.926   0.926   0.928   0.972
 53 A'   30 A"   54 A'   31 A"   32 A"   55 A'   56 A'   33 A"                 
  0.972   0.972   1.069   1.118   1.118   1.118   1.161   1.161
 57 A'   58 A'   59 A'   60 A'   34 A"   61 A'   62 A'   35 A"                 
  1.161   1.293   1.293   1.293   1.386   1.386   1.485   1.485
 63 A'   36 A"   37 A"   64 A'   65 A'   38 A"   66 A'   39 A"                 
  1.485   1.729   1.729   1.729   1.732   1.755   1.755   1.755
 67 A'   68 A'   40 A"   41 A"   42 A"   69 A'   43 A"   70 A'                 
  1.823   1.823   1.849   1.849   1.849   1.878   1.891   1.891
 44 A"   71 A'   72 A'   45 A"   73 A'   74 A'   46 A"   75 A'                 
  1.891   1.994   1.994   1.994   2.012   2.012   2.012   2.094
 47 A"   48 A"   76 A'   49 A"   50 A"   77 A'   78 A'   51 A"                 
  2.094   2.101   2.101   2.101   2.325   2.366   2.366   2.366
 79 A'   80 A'   52 A"   81 A'   82 A'   53 A"   83 A'   84 A'                 
  2.480   2.480   2.480   2.511   2.511   2.570   2.570   2.570
 54 A"   55 A"   85 A'   56 A"   86 A'   87 A'   57 A"   88 A'                 
  2.737   2.737   2.790   2.792   2.792   2.792   2.886   2.886
 58 A"   89 A'   90 A'   59 A"   91 A'   92 A'   60 A"   93 A'                 
  2.886   2.918   2.918   2.918   2.939   2.939   2.939   2.956
 61 A"   94 A'   95 A'   62 A"   96 A'   63 A"   97 A'   64 A"                 
  2.956   2.984   2.984   2.984   3.092   3.270   3.270   3.270
 98 A'   65 A"   99 A'   66 A"  100 A'  101 A'   67 A"  102 A'                 
  3.498   3.713   3.713   3.713   4.136   4.136   4.136   4.154
103 A'   68 A"  104 A'  105 A'   69 A"   70 A"  106 A'  107 A'                 
  4.154   4.191   4.191   4.191   6.292  12.431  12.431  12.431
 71 A"  108 A'   72 A"  109 A'  110 A'   73 A"  111 A'  112 A'                 
 25.111  25.111  25.111  25.140 144.041
 74 A"  113 A'  114 A'  115 A'  116 A'                                         
 --------------------------------------------------------------
 
          Ground-State Mulliken Net Atomic Charges

     Atom                 Charge (a.u.)
  ----------------------------------------
      1 Si                    1.028392
      2 C                    -0.740571
      3 C                    -0.740570
      4 C                    -0.740571
      5 C                    -0.740571
      6 H                     0.161157
      7 H                     0.161158
      8 H                     0.161158
      9 H                     0.161157
     10 H                     0.161158
     11 H                     0.161157
     12 H                     0.161158
     13 H                     0.161158
     14 H                     0.161157
     15 H                     0.161158
     16 H                     0.161157
     17 H                     0.161158
  ----------------------------------------
  Sum of atomic charges =     0.000000

 -----------------------------------------------------------------
                    Cartesian Multipole Moments
 -----------------------------------------------------------------
    Charge (ESU x 10^10)
                 0.0000
    Dipole Moment (Debye)
         X      -0.0000      Y       0.0000      Z      -0.0000
       Tot       0.0000
    Quadrupole Moments (Debye-Ang)
        XX     -43.6208     XY      -0.0000     YY     -43.6208
        XZ       0.0000     YZ      -0.0000     ZZ     -43.6208
    Octopole Moments (Debye-Ang^2)
       XXX       1.4868    XXY      -3.1709    XYY       4.5649
       YYY       4.9787    XXZ      -0.0000    XYZ      -0.0000
       YYZ      -0.0000    XZZ      -6.0519    YZZ      -1.8075
       ZZZ      -0.0000
    Hexadecapole Moments (Debye-Ang^3)
      XXXX    -336.3881   XXXY       0.6736   XXYY    -112.6009
      XYYY      -0.2897   YYYY    -337.5496   XXXZ      -0.0000
      XXYZ       0.0000   XYYZ       0.0000   YYYZ      -0.0000
      XXZZ    -112.8026   XYZZ      -0.3838   YYZZ    -111.6314
      XZZZ      -0.0000   YZZZ      -0.0000   ZZZZ    -337.3470
 -----------------------------------------------------------------
 DrvMan is completing analytic gradient of the MP2 energy
 MP2 relaxed dipole moment
            1
    1  -0.0000051
    2   0.0000052
    3  -0.0000000
	Magnitude:	 0.000 au	 0.000 Debye
 MP2 energy read as -448.211318
 Full Analytical Gradient of MP2 Energy (in au.)
             1             2             3             4             5
    1   -0.00000007    0.00002370   -0.00003385    0.00002370   -0.00001362
    2    0.00000003    0.00000704    0.00002638    0.00000704   -0.00004036
    3    0.00000000   -0.00003482   -0.00000000    0.00003482    0.00000000
             6             7             8             9            10
    1    0.00049366    0.00036269    0.00011694   -0.00054331   -0.00029784
    2   -0.00009240    0.00034810    0.00003500    0.00025735    0.00057064
    3   -0.00040194   -0.00040218   -0.00063219    0.00022986   -0.00000000
            11            12            13            14            15
    1   -0.00054331    0.00011694    0.00036269    0.00049366   -0.00031304
    2    0.00025735    0.00003500    0.00034810   -0.00009240   -0.00051318
    3   -0.00022986    0.00063219    0.00040218    0.00040194    0.00022975
            16            17
    1    0.00006411   -0.00031304
    2   -0.00064050   -0.00051318
    3   -0.00000000   -0.00022975
 Gradient time:  CPU 0.16 s  wall 0.12 s
 Geometry Optimization Parameters
   NAtoms,    NIC,     NZ,  NCons,   NDum,   NFix, NCnnct, MaxDiis
       17     116       0       0       0       0       0       0

 Cartesian Hessian Update
 Hessian Updated using BFGS Update


** GEOMETRY OPTIMIZATION IN CARTESIAN COORDINATES **
   Searching for a Minimum

   Optimization Cycle:   3

                       Coordinates (Angstroms)
     ATOM                X               Y               Z
      1  Si       -0.0000040901    0.0000054533    0.0000000000
      2  C         1.0429230978    0.3115030274   -1.5392777705
      3  C        -1.4834606069    1.1633888109    0.0000000000
      4  C         1.0429230978    0.3115030274    1.5392777705
      5  C        -0.6023811340   -1.7863998806    0.0000000000
      6  H         1.9163347186   -0.3498855057   -1.5715386064
      7  H         1.4106415175    1.3435246156   -1.5715000117
      8  H         0.4660756431    0.1392621875   -2.4551944990
      9  H        -2.1132426601    1.0089298480    0.8836519461
     10  H        -1.1687587516    2.2132866635    0.0000000000
     11  H        -2.1132426601    1.0089298480   -0.8836519461
     12  H         0.4660756431    0.1392621875    2.4551944990
     13  H         1.4106415175    1.3435246156    1.5715000117
     14  H         1.9163347186   -0.3498855057    1.5715386064
     15  H        -1.2137044844   -2.0026552946    0.8836518293
     16  H         0.2365927684   -2.4916985296    0.0000000000
     17  H        -1.2137044844   -2.0026552946   -0.8836518293
   Point Group: cs    Number of degrees of freedom:    25


   Energy is   -448.211317553


 Translations and Rotations Projected Out of Hessian

  3 Hessian modes will be used to form the next step
  Hessian Eigenvalues:
     0.247621    1.001144    1.422554

 Minimum Search - Taking Simple RFO Step
 Searching for Lamda that Minimizes Along All modes
 Value Taken    Lamda =  -0.00000776
 Step Taken.  Stepsize is  0.004761

                             Maximum     Tolerance    Cnvgd?
         Gradient           0.000640      0.000020      NO
         Displacement       0.001538      0.000120      NO
         Energy change     -0.000015      0.000000      NO

 ----------------------------------------------------------------
             Standard Nuclear Orientation (Angstroms)
    I     Atom           X                Y                Z
 ----------------------------------------------------------------
    1      Si     -0.0000038106     0.0000052148     0.0000000000
    2      C       1.0424479742     0.3113610333    -1.5385765422
    3      C      -1.4827845736     1.1628588411     0.0000000000
    4      C       1.0424479742     0.3113610333     1.5385765422
    5      C      -0.6021068109    -1.7855861412     0.0000000000
    6      H       1.9159916158    -0.3499135190    -1.5711334471
    7      H       1.4103386414     1.3433598646    -1.5710946442
    8      H       0.4658490642     0.1391944946    -2.4547176196
    9      H      -2.1128036676     1.0086380103     0.8835806351
   10      H      -1.1683957730     2.2128975967     0.0000000000
   11      H      -2.1128036676     1.0086380103    -0.8835806351
   12      H       0.4658490642     0.1391944946     2.4547176196
   13      H       1.4103386414     1.3433598646     1.5710946442
   14      H       1.9159916158    -0.3499135190     1.5711334471
   15      H      -1.2134976006    -2.0021704552     0.8835806074
   16      H       0.2366827639    -2.4911740947     0.0000000000
   17      H      -1.2134976006    -2.0021704552    -0.8835806074
 ----------------------------------------------------------------
 Molecular Point Group                 Cs    NOp =  2
 Largest Abelian Subgroup              Cs    NOp =  2
 Nuclear Repulsion Energy =   245.3069080724 hartrees
 There are       25 alpha and       25 beta electrons
 Applying Cartesian multipole field
    Component          Value
    ---------          -----
     (2,0,0)        1.00000E-11
     (0,2,0)        2.00000E-11
     (0,0,2)       -3.00000E-11
 Requested basis set is 6-311+G(d,p)
 There are 85 shells and 190 basis functions
 A cutoff of  1.0D-11 yielded   3457 shell pairs
 There are     17754 function pairs (     18744 Cartesian)
 Smallest overlap matrix eigenvalue = 2.14E-04
 Guess MOs from SCF MO coefficient file
 Reading MOs from coefficient file
 Reading MOs from coefficient file

 -----------------------------------------------------------------------
  General SCF calculation program by
  Eric Jon Sundstrom, Paul Horn, Yuezhi Mao, Dmitri Zuev, Alec White,
  David Stuck, Shaama M.S., Shane Yost, Joonho Lee, David Small,
  Daniel Levine, Susi Lehtola, Hugh Burton, Evgeny Epifanovsky
 -----------------------------------------------------------------------
 Hartree-Fock
 using 4 threads for integral computing
 -------------------------------------------------------
 OpenMP Integral computing Module                
 Release: version 1.0, May 2013, Q-Chem Inc. Pittsburgh 
 -------------------------------------------------------
 A restricted SCF calculation will be
 performed using DIIS
 SCF converges when DIIS error is below 1.0e-08
 ---------------------------------------
  Cycle       Energy         DIIS error
 ---------------------------------------
    1    -447.4824285810      2.67e-05  
    2    -447.4822990643      2.77e-06  
    3    -447.4822991095      9.07e-07  
    4    -447.4822991149      2.93e-07  
    5    -447.4822991158      6.03e-08  
    6    -447.4822991158      1.20e-08  
    7    -447.4822991158      2.77e-09  Convergence criterion met
 ---------------------------------------
 SCF time:   CPU 17.30s  wall 4.00s 
 SCF   energy in the final basis set =     -447.4822991158
 Total energy in the final basis set =     -447.4822991158
 
 Components of the MP2 correlation energy:
        aaaa  correlation energy =        -0.0794241282 au
        abab  correlation energy =        -0.5701769017 au
        bbbb  correlation energy =        -0.0794241282 au
        non-Brillouin singles    =        -0.0000000000 au

 Total  MP2   correlation energy =                    -0.72902516 au
        MP2         total energy =                  -448.21132427 au
  Entering Z-vector solver.
   1         0           1      0.000192    0.000192
   2         0           1      0.000046    0.000046
   3         0           1      0.000006    0.000006
   4         0           1      0.000002    0.000002
   5         1           0      0.000000    0.000000    Roots Converged
 
 --------------------------------------------------------------
             Orbital Energies (a.u.) and Symmetries
 --------------------------------------------------------------
 
 Alpha MOs, Restricted
 -- Occupied --                  
-68.750 -11.195 -11.195 -11.195 -11.195  -6.097  -4.204  -4.204
  1 A'    1 A"    2 A'    3 A'    4 A'    5 A'    2 A"    6 A'                 
 -4.204  -0.972  -0.919  -0.919  -0.919  -0.624  -0.564  -0.564
  7 A'    8 A'    9 A'   10 A'    3 A"   11 A'   12 A'   13 A'                 
 -0.564  -0.546  -0.546  -0.525  -0.525  -0.525  -0.424  -0.424
  4 A"   14 A'    5 A"    6 A"    7 A"   15 A'    8 A"   16 A'                 
 -0.424
 17 A'                                                                         
 -- Virtual --                   
  0.051   0.074   0.074   0.074   0.116   0.116   0.116   0.130
 18 A'    9 A"   19 A'   20 A'   10 A"   21 A'   22 A'   11 A"                 
  0.130   0.148   0.156   0.156   0.156   0.182   0.182   0.182
 23 A'   24 A'   12 A"   13 A"   25 A'   14 A"   26 A'   27 A'                 
  0.189   0.189   0.189   0.219   0.269   0.269   0.274   0.274
 15 A"   28 A'   29 A'   30 A'   31 A'   16 A"   17 A"   32 A'                 
  0.274   0.300   0.300   0.300   0.348   0.348   0.348   0.368
 33 A'   34 A'   18 A"   35 A'   19 A"   36 A'   20 A"   37 A'                 
  0.390   0.390   0.390   0.474   0.474   0.481   0.481   0.481
 21 A"   38 A'   39 A'   22 A"   40 A'   23 A"   41 A'   42 A'                 
  0.489   0.640   0.640   0.640   0.652   0.680   0.680   0.680
 43 A'   44 A'   45 A'   24 A"   46 A'   25 A"   47 A'   26 A"                 
  0.706   0.706   0.706   0.787   0.838   0.838   0.859   0.859
 27 A"   48 A'   49 A'   50 A'   51 A'   28 A"   29 A"   52 A'                 
  0.859   0.898   0.898   0.898   0.926   0.926   0.928   0.972
 53 A'   30 A"   54 A'   31 A"   32 A"   55 A'   56 A'   33 A"                 
  0.972   0.972   1.068   1.118   1.118   1.118   1.161   1.161
 57 A'   58 A'   59 A'   60 A'   34 A"   61 A'   62 A'   35 A"                 
  1.161   1.293   1.293   1.293   1.386   1.386   1.485   1.485
 63 A'   36 A"   37 A"   64 A'   65 A'   38 A"   66 A'   39 A"                 
  1.485   1.729   1.729   1.729   1.732   1.755   1.755   1.755
 67 A'   68 A'   40 A"   41 A"   42 A"   69 A'   43 A"   70 A'                 
  1.823   1.823   1.849   1.849   1.849   1.878   1.891   1.891
 44 A"   71 A'   72 A'   45 A"   73 A'   74 A'   46 A"   75 A'                 
  1.891   1.994   1.994   1.994   2.012   2.012   2.012   2.094
 47 A"   48 A"   76 A'   49 A"   50 A"   77 A'   78 A'   51 A"                 
  2.094   2.101   2.101   2.101   2.326   2.367   2.367   2.367
 79 A'   80 A'   52 A"   81 A'   82 A'   53 A"   83 A'   84 A'                 
  2.480   2.480   2.480   2.511   2.511   2.571   2.571   2.571
 54 A"   55 A"   85 A'   56 A"   86 A'   87 A'   57 A"   88 A'                 
  2.737   2.737   2.790   2.792   2.792   2.792   2.885   2.885
 58 A"   89 A'   90 A'   59 A"   91 A'   92 A'   60 A"   93 A'                 
  2.885   2.918   2.918   2.918   2.939   2.939   2.939   2.956
 61 A"   94 A'   62 A"   95 A'   96 A'   63 A"   97 A'   64 A"                 
  2.956   2.985   2.985   2.985   3.092   3.271   3.271   3.271
 98 A'   65 A"   99 A'   66 A"  100 A'  101 A'   67 A"  102 A'                 
  3.499   3.714   3.714   3.714   4.136   4.136   4.136   4.154
103 A'   68 A"  104 A'  105 A'   69 A"   70 A"  106 A'  107 A'                 
  4.154   4.191   4.191   4.191   6.293  12.432  12.432  12.432
 71 A"  108 A'   72 A"  109 A'  110 A'   73 A"  111 A'  112 A'                 
 25.111  25.111  25.111  25.140 144.042
 74 A"  113 A'  114 A'  115 A'  116 A'                                         
 
 Beta MOs, Restricted
 -- Occupied --                  
-68.750 -11.195 -11.195 -11.195 -11.195  -6.097  -4.204  -4.204
  1 A'    1 A"    2 A'    3 A'    4 A'    5 A'    2 A"    6 A'                 
 -4.204  -0.972  -0.919  -0.919  -0.919  -0.624  -0.564  -0.564
  7 A'    8 A'    9 A'   10 A'    3 A"   11 A'   12 A'   13 A'                 
 -0.564  -0.546  -0.546  -0.525  -0.525  -0.525  -0.424  -0.424
  4 A"   14 A'    5 A"    6 A"    7 A"   15 A'    8 A"   16 A'                 
 -0.424
 17 A'                                                                         
 -- Virtual --                   
  0.051   0.074   0.074   0.074   0.116   0.116   0.116   0.130
 18 A'    9 A"   19 A'   20 A'   10 A"   21 A'   22 A'   11 A"                 
  0.130   0.148   0.156   0.156   0.156   0.182   0.182   0.182
 23 A'   24 A'   12 A"   13 A"   25 A'   14 A"   26 A'   27 A'                 
  0.189   0.189   0.189   0.219   0.269   0.269   0.274   0.274
 15 A"   28 A'   29 A'   30 A'   31 A'   16 A"   17 A"   32 A'                 
  0.274   0.300   0.300   0.300   0.348   0.348   0.348   0.368
 33 A'   34 A'   18 A"   35 A'   19 A"   36 A'   20 A"   37 A'                 
  0.390   0.390   0.390   0.474   0.474   0.481   0.481   0.481
 21 A"   38 A'   39 A'   22 A"   40 A'   23 A"   41 A'   42 A'                 
  0.489   0.640   0.640   0.640   0.652   0.680   0.680   0.680
 43 A'   44 A'   45 A'   24 A"   46 A'   25 A"   47 A'   26 A"                 
  0.706   0.706   0.706   0.787   0.838   0.838   0.859   0.859
 27 A"   48 A'   49 A'   50 A'   51 A'   28 A"   29 A"   52 A'                 
  0.859   0.898   0.898   0.898   0.926   0.926   0.928   0.972
 53 A'   30 A"   54 A'   31 A"   32 A"   55 A'   56 A'   33 A"                 
  0.972   0.972   1.068   1.118   1.118   1.118   1.161   1.161
 57 A'   58 A'   59 A'   60 A'   34 A"   61 A'   62 A'   35 A"                 
  1.161   1.293   1.293   1.293   1.386   1.386   1.485   1.485
 63 A'   36 A"   37 A"   64 A'   65 A'   38 A"   66 A'   39 A"                 
  1.485   1.729   1.729   1.729   1.732   1.755   1.755   1.755
 67 A'   68 A'   40 A"   41 A"   42 A"   69 A'   43 A"   70 A'                 
  1.823   1.823   1.849   1.849   1.849   1.878   1.891   1.891
 44 A"   71 A'   72 A'   45 A"   73 A'   74 A'   46 A"   75 A'                 
  1.891   1.994   1.994   1.994   2.012   2.012   2.012   2.094
 47 A"   48 A"   76 A'   49 A"   50 A"   77 A'   78 A'   51 A"                 
  2.094   2.101   2.101   2.101   2.326   2.367   2.367   2.367
 79 A'   80 A'   52 A"   81 A'   82 A'   53 A"   83 A'   84 A'                 
  2.480   2.480   2.480   2.511   2.511   2.571   2.571   2.571
 54 A"   55 A"   85 A'   56 A"   86 A'   87 A'   57 A"   88 A'                 
  2.737   2.737   2.790   2.792   2.792   2.792   2.885   2.885
 58 A"   89 A'   90 A'   59 A"   91 A'   92 A'   60 A"   93 A'                 
  2.885   2.918   2.918   2.918   2.939   2.939   2.939   2.956
 61 A"   94 A'   62 A"   95 A'   96 A'   63 A"   97 A'   64 A"                 
  2.956   2.985   2.985   2.985   3.092   3.271   3.271   3.271
 98 A'   65 A"   99 A'   66 A"  100 A'  101 A'   67 A"  102 A'                 
  3.499   3.714   3.714   3.714   4.136   4.136   4.136   4.154
103 A'   68 A"  104 A'  105 A'   69 A"   70 A"  106 A'  107 A'                 
  4.154   4.191   4.191   4.191   6.293  12.432  12.432  12.432
 71 A"  108 A'   72 A"  109 A'  110 A'   73 A"  111 A'  112 A'                 
 25.111  25.111  25.111  25.140 144.042
 74 A"  113 A'  114 A'  115 A'  116 A'                                         
 --------------------------------------------------------------
 
          Ground-State Mulliken Net Atomic Charges

     Atom                 Charge (a.u.)
  ----------------------------------------
      1 Si                    1.029504
      2 C                    -0.740884
      3 C                    -0.740883
      4 C                    -0.740884
      5 C                    -0.740884
      6 H                     0.161169
      7 H                     0.161169
      8 H                     0.161169
      9 H                     0.161169
     10 H                     0.161170
     11 H                     0.161169
     12 H                     0.161169
     13 H                     0.161169
     14 H                     0.161169
     15 H                     0.161169
     16 H                     0.161168
     17 H                     0.161169
  ----------------------------------------
  Sum of atomic charges =     0.000000

 -----------------------------------------------------------------
                    Cartesian Multipole Moments
 -----------------------------------------------------------------
    Charge (ESU x 10^10)
                 0.0000
    Dipole Moment (Debye)
         X      -0.0000      Y       0.0000      Z       0.0000
       Tot       0.0000
    Quadrupole Moments (Debye-Ang)
        XX     -43.6165     XY      -0.0000     YY     -43.6165
        XZ       0.0000     YZ       0.0000     ZZ     -43.6165
    Octopole Moments (Debye-Ang^2)
       XXX       1.4846    XXY      -3.1662    XYY       4.5580
       YYY       4.9712    XXZ       0.0000    XYZ       0.0000
       YYZ       0.0000    XZZ      -6.0429    YZZ      -1.8048
       ZZZ      -0.0000
    Hexadecapole Moments (Debye-Ang^3)
      XXXX    -336.1760   XXXY       0.6669   XXYY    -112.5256
      XYYY      -0.2869   YYYY    -337.3261   XXXZ       0.0000
      XXYZ       0.0000   XYYZ       0.0000   YYYZ       0.0000
      XXZZ    -112.7253   XYZZ      -0.3800   YYZZ    -111.5656
      XZZZ       0.0000   YZZZ       0.0000   ZZZZ    -337.1254
 -----------------------------------------------------------------
 DrvMan is completing analytic gradient of the MP2 energy
 MP2 relaxed dipole moment
            1
    1  -0.0000046
    2   0.0000050
    3   0.0000000
	Magnitude:	 0.000 au	 0.000 Debye
 MP2 energy read as -448.211324
 Full Analytical Gradient of MP2 Energy (in au.)
             1             2             3             4             5
    1    0.00000005   -0.00018927    0.00026907   -0.00018927    0.00010931
    2   -0.00000007   -0.00005652   -0.00021110   -0.00005652    0.00032428
    3    0.00000000    0.00027942    0.00000000   -0.00027942   -0.00000000
             6             7             8             9            10
    1    0.00051394    0.00037789    0.00012275   -0.00056606   -0.00031113
    2   -0.00009557    0.00036181    0.00003675    0.00026868    0.00059399
    3   -0.00041928   -0.00041953   -0.00065830    0.00023870   -0.00000000
            11            12            13            14            15
    1   -0.00056606    0.00012275    0.00037789    0.00051394   -0.00032577
    2    0.00026868    0.00003675    0.00036181   -0.00009557   -0.00053509
    3   -0.00023870    0.00065830    0.00041953    0.00041928    0.00023852
            16            17
    1    0.00006577   -0.00032577
    2   -0.00066723   -0.00053509
    3    0.00000000   -0.00023852
 Gradient time:  CPU 0.16 s  wall 0.12 s
 Geometry Optimization Parameters
   NAtoms,    NIC,     NZ,  NCons,   NDum,   NFix, NCnnct, MaxDiis
       17     116       0       0       0       0       0       0

 Cartesian Hessian Update
 Hessian Updated using BFGS Update


** GEOMETRY OPTIMIZATION IN CARTESIAN COORDINATES **
   Searching for a Minimum

   Optimization Cycle:   4

                       Coordinates (Angstroms)
     ATOM                X               Y               Z
      1  Si       -0.0000038106    0.0000052148    0.0000000000
      2  C         1.0424479742    0.3113610333   -1.5385765422
      3  C        -1.4827845736    1.1628588411    0.0000000000
      4  C         1.0424479742    0.3113610333    1.5385765422
      5  C        -0.6021068109   -1.7855861412    0.0000000000
      6  H         1.9159916158   -0.3499135190   -1.5711334471
      7  H         1.4103386414    1.3433598646   -1.5710946442
      8  H         0.4658490642    0.1391944946   -2.4547176196
      9  H        -2.1128036676    1.0086380103    0.8835806351
     10  H        -1.1683957730    2.2128975967    0.0000000000
     11  H        -2.1128036676    1.0086380103   -0.8835806351
     12  H         0.4658490642    0.1391944946    2.4547176196
     13  H         1.4103386414    1.3433598646    1.5710946442
     14  H         1.9159916158   -0.3499135190    1.5711334471
     15  H        -1.2134976006   -2.0021704552    0.8835806074
     16  H         0.2366827639   -2.4911740947    0.0000000000
     17  H        -1.2134976006   -2.0021704552   -0.8835806074
   Point Group: cs    Number of degrees of freedom:    25


   Energy is   -448.211324274


 Translations and Rotations Projected Out of Hessian

  4 Hessian modes will be used to form the next step
  Hessian Eigenvalues:
     0.080881    1.000000    1.010713    1.213642

 Minimum Search - Taking Simple RFO Step
 Searching for Lamda that Minimizes Along All modes
 Value Taken    Lamda =  -0.00002753
 Step Taken.  Stepsize is  0.017404

                             Maximum     Tolerance    Cnvgd?
         Gradient           0.000667      0.000020      NO
         Displacement       0.004268      0.000120      NO
         Energy change     -0.000007      0.000000      NO

 ----------------------------------------------------------------
             Standard Nuclear Orientation (Angstroms)
    I     Atom           X                Y                Z
 ----------------------------------------------------------------
    1      Si     -0.0000029696     0.0000045541     0.0000000000
    2      C       1.0411293071     0.3109667866    -1.5366303230
    3      C      -1.4809080776     1.1613879041     0.0000000000
    4      C       1.0411293071     0.3109667866     1.5366303230
    5      C      -0.6013454439    -1.7833276415     0.0000000000
    6      H       1.9144756998    -0.3499662280    -1.5694403285
    7      H       1.4090397040     1.3425726003    -1.5694006320
    8      H       0.4649599262     0.1389287900    -2.4526397573
    9      H      -2.1109113610     1.0074356516     0.8831974126
   10      H      -1.1669122354     2.2111728422     0.0000000000
   11      H      -2.1109113610     1.0074356516    -0.8831974126
   12      H       0.4649599262     0.1389287900     2.4526397573
   13      H       1.4090397040     1.3425726003     1.5694006320
   14      H       1.9144756998    -0.3499662280     1.5694403285
   15      H      -1.2125753986    -2.0001271382     0.8831979006
   16      H       0.2369768222    -2.4889183095     0.0000000000
   17      H      -1.2125753986    -2.0001271382    -0.8831979006
 ----------------------------------------------------------------
 Molecular Point Group                 Cs    NOp =  2
 Largest Abelian Subgroup              Cs    NOp =  2
 Nuclear Repulsion Energy =   245.5591656249 hartrees
 There are       25 alpha and       25 beta electrons
 Applying Cartesian multipole field
    Component          Value
[...]
 C         -0.081 -0.023  0.018    0.038 -0.019 -0.069    0.019 -0.099  0.020
 C         -0.090 -0.001 -0.010    0.020 -0.017 -0.100    0.039 -0.058  0.029
 H         -0.035  0.022  0.272    0.091  0.085 -0.021    0.196  0.152 -0.291
 H         -0.018 -0.037  0.272   -0.028 -0.007  0.137   -0.274  0.034  0.257
 H          0.235  0.068 -0.234    0.184  0.104 -0.208   -0.104  0.146  0.060
 H         -0.072  0.225  0.038    0.321 -0.192  0.106   -0.077  0.154  0.003
 H          0.271 -0.141  0.017    0.056 -0.032  0.168    0.289 -0.160 -0.048
 H         -0.134  0.264 -0.018   -0.293  0.199  0.094    0.100  0.041 -0.060
 H          0.191  0.055  0.188   -0.251 -0.022 -0.247    0.022  0.182  0.071
 H         -0.027 -0.033 -0.255   -0.119  0.030  0.028   -0.248  0.023 -0.305
 H         -0.040  0.014 -0.255    0.034  0.006  0.186    0.212  0.175  0.243
 H          0.059 -0.228  0.038    0.135  0.373  0.088   -0.104 -0.033 -0.059
 H          0.154  0.264  0.017   -0.059 -0.106  0.168   -0.151 -0.276 -0.048
 H          0.027 -0.295 -0.018   -0.177 -0.285  0.111   -0.014  0.157  0.001
 TransDip   0.340  0.098  0.034   -0.059  0.085  0.340   -0.085  0.331 -0.098

 Mode:                22                     23                     24
 Frequency:      1304.17                1304.17                1304.21
 Force Cnst:      1.2688                 1.2688                 1.2689
 Red. Mass:       1.2661                 1.2662                 1.2661
 IR Active:          YES                    YES                    YES
 IR Intens:       44.005                 44.049                 43.992
 Raman Active:       YES                    YES                    YES
               X      Y      Z        X      Y      Z        X      Y      Z
 Si         0.009 -0.008  0.005   -0.004  0.004  0.012    0.009  0.009 -0.000
 C          0.002  0.003 -0.007    0.062  0.017 -0.093   -0.039 -0.013  0.054
 C         -0.094  0.075 -0.001    0.041 -0.033 -0.003   -0.011  0.004  0.000
 C         -0.045 -0.010 -0.064   -0.044 -0.014 -0.070   -0.037 -0.012 -0.051
 C          0.013  0.047 -0.001   -0.007 -0.023 -0.003   -0.041 -0.113  0.000
 H         -0.009 -0.010  0.027   -0.097 -0.185  0.368    0.067  0.120 -0.212
 H         -0.001  0.004  0.029   -0.186  0.105  0.367    0.113 -0.066 -0.214
 H         -0.020 -0.017  0.011   -0.354 -0.097  0.210    0.209  0.067 -0.129
 H          0.263 -0.329  0.164   -0.107  0.147 -0.069    0.029 -0.023  0.022
 H          0.438 -0.108  0.005   -0.190  0.047  0.012    0.043 -0.014 -0.000
 H          0.258 -0.332 -0.163   -0.119  0.141  0.073    0.029 -0.022 -0.022
 H          0.248  0.060  0.148    0.261  0.080  0.155    0.198  0.064  0.123
 H          0.137 -0.075  0.252    0.130 -0.076  0.278    0.108 -0.063  0.202
 H          0.066  0.130  0.254    0.074  0.137  0.277    0.064  0.115  0.201
 H         -0.008 -0.174 -0.061    0.012  0.084  0.031    0.049  0.414  0.166
 H         -0.128 -0.129  0.005    0.061  0.062  0.012    0.312  0.325 -0.000
 H         -0.014 -0.175  0.062   -0.001  0.083 -0.028    0.049  0.414 -0.166
 TransDip   0.142 -0.133  0.085   -0.059  0.061  0.195    0.146  0.154 -0.003

 Mode:                25                     26                     27
 Frequency:      1319.58                1462.66                1462.66
 Force Cnst:      1.2597                 1.3281                 1.3281
 Red. Mass:       1.2279                 1.0536                 1.0536
 IR Active:          YES                    YES                    YES
 IR Intens:        0.000                  0.000                  0.000
 Raman Active:       YES                    YES                    YES
               X      Y      Z        X      Y      Z        X      Y      Z
 Si        -0.000  0.000 -0.000   -0.000 -0.000  0.000   -0.000 -0.000 -0.000
 C          0.039  0.011 -0.058    0.010 -0.038 -0.000    0.002 -0.006  0.000
 C         -0.055  0.044  0.000    0.011  0.014 -0.029    0.022  0.028  0.014
 C          0.039  0.011  0.058   -0.005  0.018 -0.000    0.009 -0.034  0.000
 C         -0.023 -0.067  0.000   -0.017  0.006  0.029   -0.033  0.012 -0.015
 H         -0.069 -0.127  0.246    0.086  0.064  0.272    0.010  0.006  0.039
 H         -0.126  0.071  0.246   -0.099  0.005 -0.270   -0.017  0.002 -0.041
 H         -0.237 -0.068  0.144   -0.125  0.425  0.001   -0.018  0.066 -0.001
 H          0.166 -0.209  0.103   -0.108  0.129 -0.081   -0.248 -0.268 -0.226
 H          0.277 -0.070  0.000    0.097 -0.018  0.324    0.192 -0.037 -0.161
 H          0.166 -0.209 -0.103   -0.135 -0.293  0.133   -0.234 -0.058  0.200
 H         -0.237 -0.068 -0.144    0.059 -0.200  0.001   -0.112  0.380 -0.001
 H         -0.126  0.071 -0.247    0.047 -0.002 -0.128   -0.086  0.004  0.240
 H         -0.069 -0.127 -0.247   -0.042 -0.032  0.130    0.077  0.058 -0.243
 H          0.029  0.265  0.103    0.020  0.169  0.081    0.354 -0.098  0.226
 H          0.198  0.207 -0.000   -0.072 -0.067 -0.329   -0.143 -0.133  0.167
 H          0.029  0.265 -0.103    0.272 -0.179 -0.134    0.226  0.079 -0.199
 TransDip  -0.000  0.000 -0.000    0.000  0.000 -0.000    0.000  0.000  0.000

 Mode:                28                     29                     30
 Frequency:      1462.67                1465.46                1465.47
 Force Cnst:      1.3281                 1.3282                 1.3282
 Red. Mass:       1.0536                 1.0497                 1.0497
 IR Active:          YES                    YES                    YES
 IR Intens:        0.000                  0.000                  0.000
 Raman Active:       YES                    YES                    YES
               X      Y      Z        X      Y      Z        X      Y      Z
 Si         0.000  0.000  0.000    0.000  0.000 -0.000    0.000 -0.000 -0.000
 C          0.031  0.009  0.023   -0.024 -0.007 -0.018    0.008 -0.030 -0.000
 C         -0.000 -0.000 -0.023    0.019  0.024 -0.000    0.000  0.000  0.031
 C         -0.031 -0.008  0.023   -0.024 -0.007  0.018   -0.009  0.030  0.000
 C          0.000 -0.000 -0.022    0.029 -0.010  0.000    0.000 -0.000 -0.031
 H         -0.231 -0.314 -0.099    0.188  0.255  0.077    0.068  0.052  0.227
 H         -0.364  0.143 -0.102    0.297 -0.116  0.083   -0.080  0.005 -0.226
 H          0.186  0.057 -0.099   -0.153 -0.049  0.084   -0.103  0.350  0.001
 H          0.012  0.172  0.022   -0.221 -0.144 -0.193   -0.014 -0.240 -0.031
 H         -0.001  0.000  0.266    0.178 -0.036  0.004    0.002 -0.000 -0.364
 H         -0.009 -0.170  0.019   -0.221 -0.149  0.194    0.009  0.237 -0.027
 H         -0.186 -0.060 -0.099   -0.155 -0.041 -0.084    0.099 -0.351 -0.001
 H          0.365 -0.144 -0.104    0.295 -0.116 -0.078    0.086 -0.008 -0.228
 H          0.230  0.314 -0.097    0.190  0.256 -0.082   -0.064 -0.046  0.226
 H          0.093 -0.133  0.018   -0.268  0.009 -0.195    0.134 -0.196  0.027
 H          0.001  0.001  0.255    0.132  0.126 -0.004    0.001  0.001  0.365
 H         -0.097  0.133  0.021   -0.265  0.005  0.195   -0.140  0.196  0.031
 TransDip  -0.000 -0.000  0.000   -0.000 -0.000 -0.000   -0.000 -0.000 -0.000

 Mode:                31                     32                     33
 Frequency:      1483.00                1483.08                1483.09
 Force Cnst:      1.3548                 1.3549                 1.3549
 Red. Mass:       1.0455                 1.0455                 1.0455
 IR Active:          YES                    YES                    YES
 IR Intens:        8.530                  8.521                  8.521
 Raman Active:       YES                    YES                    YES
               X      Y      Z        X      Y      Z        X      Y      Z
 Si        -0.009 -0.001  0.000   -0.000  0.000 -0.009    0.001 -0.009 -0.000
 C         -0.023 -0.001 -0.017   -0.017 -0.004 -0.010    0.006 -0.034 -0.003
 C         -0.014 -0.020  0.000    0.000  0.000 -0.035   -0.017 -0.018 -0.001
 C         -0.023 -0.001  0.017    0.017  0.006 -0.010    0.006 -0.034  0.003
 C         -0.029  0.011  0.000   -0.000  0.000 -0.035    0.015 -0.003 -0.001
 H          0.172  0.240  0.031    0.134  0.183  0.041    0.111  0.101  0.293
 H          0.305 -0.114  0.126    0.215 -0.084  0.054   -0.041 -0.015 -0.264
 H         -0.141 -0.117  0.089   -0.105 -0.040  0.059   -0.150  0.411  0.016
 H          0.189  0.127  0.165    0.005  0.295  0.030    0.195  0.125  0.170
 H         -0.166  0.035 -0.002    0.002 -0.000  0.443   -0.153  0.032  0.009
 H          0.189  0.130 -0.166   -0.012 -0.298  0.035    0.194  0.112 -0.168
 H         -0.143 -0.118 -0.090    0.110  0.022  0.059   -0.146  0.412 -0.014
 H          0.308 -0.114 -0.126   -0.210  0.084  0.041   -0.050 -0.011  0.266
 H          0.174  0.242 -0.032   -0.136 -0.185  0.053    0.105  0.094 -0.291
 H          0.289 -0.005  0.211    0.169 -0.246  0.036   -0.137 -0.011 -0.105
 H         -0.152 -0.146 -0.002   -0.002 -0.002  0.442    0.067  0.065  0.009
 H          0.290 -0.007 -0.211   -0.160  0.246  0.029   -0.144 -0.000  0.107
 TransDip   0.093  0.011 -0.000    0.001 -0.002  0.093   -0.011  0.093  0.002

 Mode:                34                     35                     36
 Frequency:      3062.36                3062.37                3062.46
 Force Cnst:      5.7228                 5.7228                 5.7231
 Red. Mass:       1.0357                 1.0357                 1.0357
 IR Active:          YES                    YES                    YES
 IR Intens:        9.823                  9.855                  9.894
 Raman Active:       YES                    YES                    YES
               X      Y      Z        X      Y      Z        X      Y      Z
 Si         0.001  0.001 -0.000   -0.001  0.001 -0.000    0.000  0.000  0.001
 C         -0.015 -0.004  0.022    0.003  0.001 -0.005    0.020  0.006 -0.029
 C         -0.011  0.009 -0.000    0.031 -0.025 -0.000    0.000 -0.000  0.000
 C         -0.014 -0.004 -0.021    0.004  0.001  0.005   -0.020 -0.006 -0.029
 C         -0.010 -0.029 -0.000   -0.010 -0.027  0.000   -0.000 -0.000  0.000
 H          0.240 -0.192  0.000   -0.053  0.043 -0.001   -0.315  0.252  0.000
 H          0.100  0.288  0.000   -0.025 -0.071  0.001   -0.133 -0.382  0.000
 H         -0.172 -0.049 -0.254    0.040  0.012  0.059    0.223  0.064  0.327
 H          0.087  0.026 -0.129   -0.255 -0.073  0.375    0.002 -0.000 -0.002
 H         -0.053 -0.154  0.000    0.151  0.431  0.000    0.000  0.001 -0.000
 H          0.087  0.026  0.129   -0.255 -0.073 -0.375   -0.003 -0.000 -0.003
 H         -0.166 -0.048  0.245    0.042  0.012 -0.062   -0.228 -0.066  0.335
 H          0.097  0.278 -0.000   -0.026 -0.074 -0.001    0.136  0.390  0.000
 H          0.232 -0.185 -0.000   -0.056  0.045  0.001    0.323 -0.258  0.000
 H          0.195  0.056 -0.287    0.186  0.054 -0.274    0.004  0.002 -0.006
 H         -0.277  0.222 -0.000   -0.259  0.206 -0.000   -0.004  0.003  0.000
 H          0.195  0.056  0.287    0.186  0.054  0.274    0.001 -0.000  0.001
 TransDip  -0.087 -0.050  0.001    0.050 -0.087  0.000   -0.001 -0.001 -0.101

 Mode:                37                     38                     39
 Frequency:      3062.80                3154.69                3154.70
 Force Cnst:      5.7233                 6.4509                 6.4509
 Red. Mass:       1.0355                 1.1002                 1.1002
 IR Active:          YES                    YES                    YES
 IR Intens:        0.069                  0.000                  0.000
 Raman Active:       YES                    YES                    YES
               X      Y      Z        X      Y      Z        X      Y      Z
 Si        -0.000 -0.000 -0.000    0.000 -0.000  0.000    0.000 -0.000 -0.000
 C         -0.013 -0.004  0.019   -0.013  0.042 -0.001    0.035  0.012  0.026
 C          0.021 -0.017 -0.000    0.001  0.001 -0.048   -0.029 -0.036 -0.002
 C         -0.013 -0.004 -0.019    0.010 -0.043  0.002    0.036  0.008 -0.026
 C          0.009  0.026 -0.000    0.002 -0.001  0.047   -0.043  0.015  0.002
 H          0.207 -0.165 -0.001    0.274 -0.206 -0.008   -0.143  0.121  0.011
 H          0.088  0.250 -0.001   -0.120 -0.312  0.008   -0.068 -0.209  0.011
 H         -0.146 -0.042 -0.217    0.002  0.012  0.007   -0.214 -0.061 -0.340
 H         -0.173 -0.049  0.254   -0.221 -0.054  0.302    0.103  0.018 -0.156
 H          0.102  0.294  0.000   -0.005 -0.016 -0.012    0.121  0.391 -0.001
 H         -0.173 -0.049 -0.254    0.212  0.053  0.288    0.123  0.023  0.184
 H         -0.145 -0.042  0.214    0.018 -0.006 -0.023   -0.214 -0.062  0.340
 H          0.087  0.247  0.001    0.125  0.328  0.009   -0.057 -0.179 -0.011
 H          0.205 -0.163  0.001   -0.259  0.193 -0.007   -0.168  0.139 -0.011
 H         -0.173 -0.050  0.254    0.201  0.066 -0.279    0.113  0.044 -0.179
 H          0.243 -0.195 -0.000   -0.015  0.013  0.011    0.304 -0.262  0.000
 H         -0.173 -0.050 -0.254   -0.212 -0.070 -0.296    0.096  0.039  0.154
 TransDip   0.008  0.002  0.000    0.000 -0.000  0.000    0.000 -0.000 -0.000

 Mode:                40                     41                     42
 Frequency:      3155.04                3155.05                3155.06
 Force Cnst:      6.4541                 6.4542                 6.4542
 Red. Mass:       1.1005                 1.1005                 1.1005
 IR Active:          YES                    YES                    YES
 IR Intens:        0.000                  0.000                  0.000
 Raman Active:       YES                    YES                    YES
               X      Y      Z        X      Y      Z        X      Y      Z
 Si        -0.000  0.000 -0.000   -0.000 -0.000 -0.000    0.000  0.000  0.000
 C         -0.044  0.016 -0.027    0.015  0.042  0.019   -0.009  0.034  0.000
 C          0.001  0.001  0.051    0.002  0.003  0.018   -0.035 -0.043  0.003
 C          0.044 -0.017 -0.027   -0.014 -0.046  0.019   -0.009  0.028  0.001
 C         -0.001  0.000  0.002   -0.003  0.001 -0.055    0.053 -0.019 -0.004
 H          0.324 -0.256 -0.016    0.113 -0.076  0.001    0.216 -0.162 -0.006
 H         -0.012 -0.002 -0.006   -0.144 -0.395  0.014   -0.099 -0.258  0.007
 H          0.212  0.068  0.340   -0.153 -0.036 -0.239   -0.006  0.007 -0.005
 H          0.226  0.056 -0.308    0.070  0.018 -0.095    0.148  0.029 -0.219
 H         -0.004 -0.011  0.011   -0.010 -0.031  0.004    0.145  0.470  0.001
 H         -0.233 -0.057 -0.318   -0.088 -0.021 -0.122    0.124  0.023  0.187
 H         -0.212 -0.068  0.340    0.153  0.035 -0.240    0.004  0.008 -0.010
 H          0.016  0.013 -0.005    0.155  0.426  0.015   -0.079 -0.206 -0.005
 H         -0.334  0.263 -0.016   -0.138  0.095  0.000    0.186 -0.140  0.006
 H          0.012  0.004 -0.017   -0.234 -0.077  0.324   -0.147 -0.057  0.229
 H          0.009 -0.008  0.000    0.024 -0.021 -0.012   -0.378  0.325 -0.001
 H         -0.005 -0.001 -0.007    0.250  0.084  0.351   -0.115 -0.046 -0.184
 TransDip  -0.000  0.000 -0.000   -0.000 -0.000 -0.000   -0.000  0.001  0.000

 Mode:                43                     44                     45
 Frequency:      3156.79                3156.80                3156.83
 Force Cnst:      6.4561                 6.4561                 6.4562
 Red. Mass:       1.0996                 1.0996                 1.0996
 IR Active:          YES                    YES                    YES
 IR Intens:       33.253                 33.262                 33.209
 Raman Active:       YES                    YES                    YES
               X      Y      Z        X      Y      Z        X      Y      Z
 Si        -0.001 -0.001 -0.001    0.000  0.000 -0.001   -0.001  0.001  0.000
 C         -0.035 -0.032 -0.030   -0.012  0.013 -0.005   -0.029  0.043 -0.011
 C         -0.030 -0.038 -0.028    0.017  0.022 -0.049    0.004  0.006  0.004
 C         -0.010 -0.025  0.011    0.032  0.026 -0.027   -0.032  0.042  0.014
 C         -0.022  0.008 -0.028    0.009 -0.003 -0.048   -0.047  0.017  0.004
 H          0.047 -0.049 -0.008    0.126 -0.097 -0.005    0.370 -0.282 -0.015
 H          0.131  0.371 -0.017   -0.032 -0.078  0.002   -0.109 -0.272  0.005
 H          0.242  0.065  0.386    0.044  0.016  0.073    0.086  0.036  0.142
 H         -0.006 -0.008 -0.007   -0.289 -0.066  0.401    0.002  0.001 -0.000
 H          0.124  0.409 -0.006   -0.073 -0.238 -0.010   -0.019 -0.064  0.001
 H          0.245  0.052  0.347    0.150  0.040  0.195   -0.031 -0.007 -0.046
 H          0.092  0.022 -0.144   -0.219 -0.060  0.350    0.106  0.042 -0.174
 H          0.087  0.238  0.010   -0.108 -0.310 -0.014   -0.103 -0.254 -0.004
 H         -0.059  0.039  0.001   -0.060  0.058 -0.008    0.384 -0.294  0.016
 H         -0.065 -0.018  0.082   -0.237 -0.082  0.334    0.133  0.052 -0.206
 H          0.155 -0.133 -0.006   -0.063  0.054 -0.010    0.339 -0.294  0.001
 H          0.178  0.064  0.258    0.190  0.062  0.261    0.100  0.040  0.159
 TransDip  -0.119 -0.107 -0.091    0.058  0.071 -0.160   -0.128  0.132  0.012

 STANDARD THERMODYNAMIC QUANTITIES AT   298.15 K  AND     1.00 ATM

   This Molecule has  0 Imaginary Frequencies
   Zero point vibrational energy:       93.427 kcal/mol

   Atom    1 Element Si Has Mass   27.97693
   Atom    2 Element C  Has Mass   12.00000
   Atom    3 Element C  Has Mass   12.00000
   Atom    4 Element C  Has Mass   12.00000
   Atom    5 Element C  Has Mass   12.00000
   Atom    6 Element H  Has Mass    1.00783
   Atom    7 Element H  Has Mass    1.00783
   Atom    8 Element H  Has Mass    1.00783
   Atom    9 Element H  Has Mass    1.00783
   Atom   10 Element H  Has Mass    1.00783
   Atom   11 Element H  Has Mass    1.00783
   Atom   12 Element H  Has Mass    1.00783
   Atom   13 Element H  Has Mass    1.00783
   Atom   14 Element H  Has Mass    1.00783
   Atom   15 Element H  Has Mass    1.00783
   Atom   16 Element H  Has Mass    1.00783
   Atom   17 Element H  Has Mass    1.00783
   Molecular Mass:    88.070890 amu
   Principal axes and moments of inertia in amu*Bohr^2:
                             1           2           3
    Eigenvalues --      583.75144   583.75843   583.75931
          X               1.00000    -0.00103    -0.00000
          Y               0.00103     1.00000    -0.00000
          Z               0.00000     0.00000     1.00000
   Rotational Symmetry Number is   1
   The Molecule is an Asymmetric Top
   Translational Enthalpy:        0.889 kcal/mol
   Rotational Enthalpy:           0.889 kcal/mol
   Vibrational Enthalpy:         97.499 kcal/mol
   gas constant (RT):             0.592 kcal/mol
   Translational Entropy:        39.339  cal/mol.K
   Rotational Entropy:           26.789  cal/mol.K
   Vibrational Entropy:          24.030  cal/mol.K

   Total Enthalpy:               99.869 kcal/mol
   Total Entropy:                90.158  cal/mol.K
Archival summary:
1\1\mm2.localdomain\FREQ\MP2\6-311+G**\i1412\xuedong\TueSep321:55:392019TueSep321:55:392019\0\\#,FREQ,MP2,6-311+G**,\\0,1\Si\C,1,1.88113\H,2,1.09525,1,111.226\H,2,1.09525,1,111.226,3,-120,0\H,2,1.09525,1,111.226,3,120,0\C,1,1.88113,2,109.471,3,-59.9995,0\H,6,1.09525,1,111.227,2,-60.0033,0\H,6,1.09525,1,111.226,2,179.996,0\H,6,1.09525,1,111.226,2,59.9967,0\C,1,1.88113,2,109.471,3,59.9995,0\H,10,1.09525,1,111.227,2,60.0033,0\H,10,1.09525,1,111.226,2,-179.996,0\H,10,1.09525,1,111.226,2,-59.9967,0\C,1,1.88114,2,109.471,3,-180,0\H,14,1.09525,1,111.227,2,-180,0\H,14,1.09525,1,111.226,2,-59.9997,0\H,14,1.09525,1,111.226,2,59.9997,0\\HF=-447.48233\MP2=-448.211368\\@

 Total job time:  2323.59s(wall), 5395.27s(cpu) 
 Tue Sep  3 21:55:39 2019

        *************************************************************
        *                                                           *
        *  Thank you very much for using Q-Chem.  Have a nice day.  *
        *                                                           *
        *************************************************************


