
Running Job 1 of 2 8.freq.qcinp
qchem 8.freq.qcinp_40758.0 /scratch/xuedong/qchem40758/ 1
/home/qwang/software/qchem5.1/exe/qcprog.exe_s 8.freq.qcinp_40758.0 /scratch/xuedong/qchem40758/
Check license passed

                  Welcome to Q-Chem
     A Quantum Leap Into The Future Of Chemistry


 Q-Chem 5.1, Q-Chem, Inc., Pleasanton, CA (2018)

 Yihan Shao,  Zhengting Gan,  E. Epifanovsky,  A. T. B. Gilbert,  M. Wormit,  
 J. Kussmann,  A. W. Lange,  A. Behn,  Jia Deng,  Xintian Feng,  D. Ghosh,  
 M. Goldey,  P. R. Horn,  L. D. Jacobson,  I. Kaliman,  T. Kus,  A. Landau,  
 Jie Liu,  E. I. Proynov,  R. M. Richard,  R. P. Steele,  E. J. Sundstrom,  
 H. L. Woodcock III,  P. M. Zimmerman,  D. Zuev,  B. Albrecht,  E. Alguire,  
 S. A. Baeppler,  D. Barton,  Z. Benda,  Y. A. Bernard,  E. J. Berquist,  
 K. B. Bravaya,  H. Burton,  D. Casanova,  Chun-Min Chang,  Yunqing Chen,  
 A. Chien,  K. D. Closser,  M. P. Coons,  S. Coriani,  S. Dasgupta,  
 A. L. Dempwolff,  M. Diedenhofen,  Hainam Do,  R. G. Edgar,  Po-Tung Fang,  
 S. Faraji,  S. Fatehi,  Qingguo Feng,  K. D. Fenk,  J. Fosso-Tande,  
 Qinghui Ge,  A. Ghysels,  G. Gidofalvi,  J. Gomes,  J. Gonthier,  A. Gunina,  
 D. Hait,  M. W. D. Hanson-Heine,  P. H. P. Harbach,  A. W. Hauser,  
 J. E. Herr,  E. G. Hohenstein,  Z. C. Holden,  Kerwin Hui,  B. C. Huynh,  
 T.-C. Jagau,  Hyunjun Ji,  B. Kaduk,  K. Khistyaev,  Jaehoon Kim,  
 P. Klunzinger,  K. Koh,  D. Kosenkov,  L. Koulias,  T. Kowalczyk,  
 C. M. Krauter,  A. Kunitsa,  Ka Un Lao,  A. Laurent,  K. V. Lawler,  
 Joonho Lee,  D. Lefrancois,  S. Lehtola,  D. S. Levine,  Yi-Pei Li,  
 You-Sheng Lin,  Fenglai Liu,  E. Livshits,  A. Luenser,  P. Manohar,  
 E. Mansoor,  S. F. Manzer,  Shan-Ping Mao,  Yuezhi Mao,  N. Mardirossian,  
 A. V. Marenich,  T. Markovich,  L. A. Martinez-Martinez,  S. A. Maurer,  
 N. J. Mayhall,  S. C. McKenzie,  J.-M. Mewes,  A. F. Morrison,  
 J. W. Mullinax,  K. Nanda,  T. S. Nguyen-Beck,  R. Olivares-Amaya,  
 J. A. Parkhill,  T. M. Perrine,  F. Plasser,  P. Pokhilko,  S. Prager,  
 A. Prociuk,  E. Ramos,  D. R. Rehn,  F. Rob,  M. Schneider,  N. Sergueev,  
 S. M. Sharada,  S. Sharma,  D. W. Small,  T. Stauch,  T. Stein,  
 Yu-Chuan Su,  A. J. W. Thom,  A. Tkatchenko,  T. Tsuchimochi,  N. M. Tubman,  
 L. Vogt,  M. L. Vidal,  O. Vydrov,  M. A. Watson,  J. Wenzel,  
 M. de Wergifosse,  T. A. Wesolowski,  A. White,  J. Witte,  A. Yamada,  
 Jun Yang,  K. Yao,  S. Yeganeh,  S. R. Yost,  Zhi-Qiang You,  A. Zech,  
 Igor Ying Zhang,  Xing Zhang,  Yan Zhao,  Ying Zhu,  B. R. Brooks,  
 G. K. L. Chan,  C. J. Cramer,  M. S. Gordon,  W. J. Hehre,  A. Klamt,  
 M. W. Schmidt,  C. D. Sherrill,  D. G. Truhlar,  A. Aspuru-Guzik,  R. Baer,  
 A. T. Bell,  N. A. Besley,  Jeng-Da Chai,  R. A. DiStasio Jr.,  A. Dreuw,  
 B. D. Dunietz,  T. R. Furlani,  Chao-Ping Hsu,  Yousung Jung,  Jing Kong,  
 D. S. Lambrecht,  WanZhen Liang,  C. Ochsenfeld,  V. A. Rassolov,  
 L. V. Slipchenko,  J. E. Subotnik,  T. Van Voorhis,  J. M. Herbert,  
 A. I. Krylov,  P. M. W. Gill,  M. Head-Gordon

 Contributors to earlier versions of Q-Chem not listed above: 
 R. D. Adamson,  B. Austin,  J. Baker,  G. J. O. Beran,  K. Brandhorst,  
 S. T. Brown,  E. F. C. Byrd,  A. K. Chakraborty,  C.-L. Cheng,  
 Siu Hung Chien,  D. M. Chipman,  D. L. Crittenden,  H. Dachsel,  
 R. J. Doerksen,  A. D. Dutoi,  L. Fusti-Molnar,  W. A. Goddard III,  
 A. Golubeva-Zadorozhnaya,  S. R. Gwaltney,  G. Hawkins,  A. Heyden,  
 S. Hirata,  G. Kedziora,  F. J. Keil,  C. Kelley,  Jihan Kim,  R. A. King,  
 R. Z. Khaliullin,  P. P. Korambath,  W. Kurlancheek,  A. M. Lee,  M. S. Lee,  
 S. V. Levchenko,  Ching Yeh Lin,  D. Liotard,  R. C. Lochan,  I. Lotan,  
 P. E. Maslen,  N. Nair,  D. P. O'Neill,  D. Neuhauser,  E. Neuscamman,  
 C. M. Oana,  R. Olson,  B. Peters,  R. Peverati,  P. A. Pieniazek,  
 Y. M. Rhee,  J. Ritchie,  M. A. Rohrdanz,  E. Rosta,  N. J. Russ,  
 H. F. Schaefer III,  N. E. Schultz,  N. Shenvi,  A. C. Simmonett,  A. Sodt,  
 D. Stuck,  K. S. Thanthiriwatte,  V. Vanovschi,  Tao Wang,  A. Warshel,  
 C. F. Williams,  Q. Wu,  X. Xu,  W. Zhang

 Please cite Q-Chem as follows:
 Y. Shao et al., Mol. Phys. 113, 184-215 (2015)
 DOI: 10.1080/00268976.2014.952696

 Q-Chem 5.1.0 for Intel X86 EM64T Linux

 Parts of Q-Chem use Armadillo 8.300.2 (Tropical Shenanigans).
 http://arma.sourceforge.net/

 Q-Chem begins on Thu Jun 18 11:37:01 2020  

Host: 
0

     Scratch files written to /scratch/xuedong/qchem40758//
 May118 |scratch|qcdevops|jenkins|workspace|build_RNUM 6581   
Processing $rem in /home/qwang/software/qchem5.1/config/preferences.
 MEM_TOTAL  2000 
Core orbitals will be frozen

Checking the input file for inconsistencies... 	...done.

--------------------------------------------------------------
User input:
--------------------------------------------------------------
$molecule
0 1
C         1.5210558449   -0.4520793426    0.0228272991
Si       -0.0614872731    0.5491367157   -0.0912552964
H        -0.0009684783    1.3660694051   -1.3437137228
H        -0.1871343644    1.5019500950    1.0439571138
N        -1.4224195835   -0.5311166871    0.0316425335
H         1.5626686802   -1.0027192421    0.9657160993
H         1.5916871432   -1.1777558448   -0.7931684349
H         2.4011667491    0.1949289956   -0.0373153708
H        -2.3336459474   -0.1385111820    0.2390142837
H        -1.5139627015   -1.2834855221   -0.6417744953
$end

$rem
JOBTYPE  =  opt
METHOD  =  MP2
BASIS  =  6-311G+(d,p)
SCF_MAX_CYCLES  =  200
GEOM_OPT_MAX_CYCLES  =  300
GEOM_OPT_TOL_DISPLACEMENT = 120
GEOM_OPT_TOL_ENERGY = 10
GEOM_OPT_TOL_GRADIENT = 20
$end
--------------------------------------------------------------
 ----------------------------------------------------------------
             Standard Nuclear Orientation (Angstroms)
    I     Atom           X                Y                Z
 ----------------------------------------------------------------
    1      C       1.5310983228    -0.4600227504     0.0381385183
    2      Si     -0.0619254596     0.5287478783    -0.0289362663
    3      H      -0.0196666320     1.3886519411    -1.2530575216
    4      H      -0.1873602586     1.4408328594     1.1392738356
    5      N      -1.4113032074    -0.5685420106     0.0676175415
    6      H       1.5858294283    -1.0421880609     0.9612112532
    7      H       1.6019723354    -1.1565930388    -0.8028198111
    8      H       2.4043949586     0.1973737180    -0.0067502707
    9      H      -2.3245285124    -0.1923364605     0.2955748580
   10      H      -1.5011523702    -1.2982806782    -0.6304785163
 ----------------------------------------------------------------
 Molecular Point Group                 C1    NOp =  1
 Largest Abelian Subgroup              C1    NOp =  1
 Nuclear Repulsion Energy =   116.1520411221 hartrees
 There are       17 alpha and       17 beta electrons
 Requested basis set is 6-311+G(d,p)
 There are 53 shells and 116 basis functions

 Total QAlloc Memory Limit   2000 MB
 Mega-Array Size       188 MB
 MEM_STATIC part       192 MB
 A cutoff of  1.0D-11 yielded   1396 shell pairs
 There are      6799 function pairs (      7167 Cartesian)
 
 -------------------------------------------------------
 OpenMP Integral Computing Module                       
 Release: version 1.0, May 2013, Q-Chem Inc. Pittsburgh 
 -------------------------------------------------------
 Integral Job Info:
 Integral job number is                      11
 Integral operator is                         1
 short-range coefficients                     0
 long-range coefficients              100000000
 Omega coefficients                           0
 if combine SR and LR in K                    0
 Integral screening is                        0
 Integral computing path is                   2
 max size of driver memory is            800000
 size of driver memory is                593474
 size of scratch memory is              4204008
 max col of scratch BK array               1296
 max len of scratch array in speh3          155
 max len of scratch index in speh4           18
 max int batch size is                      520
 min int batch size is                       52
 fixed nKL is                                52
 max L of basis functions is                  2
 order of int derivative is                   0
 number of shells is                         53
 number of basis is                         119
 number of cartesian basis is               119
 number of contracted shell pairs          1396
 number of primitive shell pairs           3320
 maxK2 (contraction) of shell pair           36
 max number of K2 of shell pair               1
 max number of CS2 of shell pair            195
 max number of PS2 of shell pair            414
 mem total for path MDJ                  511722
 -------------------------------------------------------
 Smallest overlap matrix eigenvalue = 7.63E-04

 Scale SEOQF with 1.000000e-01/1.000000e-01/1.000000e-01

 Standard Electronic Orientation quadrupole field applied
 Nucleus-field energy     =     0.0000000022 hartrees
 Guess from superposition of atomic densities
 Warning:  Energy on first SCF cycle will be non-variational
 SAD guess density has 34.000000 electrons

 -----------------------------------------------------------------------
  General SCF calculation program by
  Eric Jon Sundstrom, Paul Horn, Yuezhi Mao, Dmitri Zuev, Alec White,
  David Stuck, Shaama M.S., Shane Yost, Joonho Lee, David Small,
  Daniel Levine, Susi Lehtola, Hugh Burton, Evgeny Epifanovsky
 -----------------------------------------------------------------------
 Hartree-Fock
 using 4 threads for integral computing
 -------------------------------------------------------
 OpenMP Integral computing Module                
 Release: version 1.0, May 2013, Q-Chem Inc. Pittsburgh 
 -------------------------------------------------------
 A restricted SCF calculation will be
 performed using DIIS
 SCF converges when DIIS error is below 1.0e-08
 ---------------------------------------
  Cycle       Energy         DIIS error
 ---------------------------------------
    1    -385.8365483756      5.38e-02  
    2    -385.3466907517      4.77e-03  
    3    -385.3861835250      2.05e-03  
    4    -385.3926870341      5.87e-04  
    5    -385.3934413347      9.16e-05  
    6    -385.3934644299      2.80e-05  
    7    -385.3934668085      6.27e-06  
    8    -385.3934669705      1.54e-06  
    9    -385.3934669835      3.23e-07  
   10    -385.3934669841      9.25e-08  
   11    -385.3934669842      1.92e-08  
   12    -385.3934669842      4.40e-09  Convergence criterion met
 ---------------------------------------
 SCF time:   CPU 6.95s  wall 2.00s 
 SCF   energy in the final basis set =     -385.3934669842
 Total energy in the final basis set =     -385.3934669842
 
 Components of the MP2 correlation energy:
        aaaa  correlation energy =        -0.0486065648 au
        abab  correlation energy =        -0.3530710638 au
        bbbb  correlation energy =        -0.0486065648 au
        non-Brillouin singles    =        -0.0000000000 au

 Total  MP2   correlation energy =                    -0.45028419 au
        MP2         total energy =                  -385.84375118 au
  Entering Z-vector solver.
   1         0           1      0.000210    0.000210
   2         0           1      0.000064    0.000064
   3         0           1      0.000016    0.000016
   4         0           1      0.000006    0.000006
   5         0           1      0.000001    0.000001
   6         1           0      0.000000    0.000000    Roots Converged
 
 --------------------------------------------------------------
 
                    Orbital Energies (a.u.)
 --------------------------------------------------------------
 
 Alpha MOs
 -- Occupied --
-68.776 -15.534 -11.203  -6.121  -4.228  -4.228  -4.227  -1.130
 -0.941  -0.696  -0.650  -0.570  -0.556  -0.525  -0.472  -0.453
 -0.395
 -- Virtual --
  0.060   0.069   0.076   0.085   0.118   0.130   0.131   0.164
  0.190   0.192   0.206   0.215   0.229   0.249   0.264   0.281
  0.289   0.311   0.313   0.350   0.379   0.385   0.445   0.486
  0.520   0.537   0.581   0.598   0.652   0.722   0.733   0.765
  0.830   0.847   0.863   0.920   0.933   0.957   1.032   1.060
  1.096   1.120   1.133   1.186   1.311   1.340   1.368   1.450
  1.487   1.554   1.563   1.626   1.719   1.726   1.779   1.827
  1.842   1.897   1.897   1.937   1.971   2.032   2.041   2.112
  2.252   2.256   2.297   2.353   2.405   2.507   2.516   2.753
  2.771   2.790   2.805   2.835   2.862   2.879   2.905   2.962
  3.023   3.052   3.115   3.185   3.284   3.457   3.629   4.147
  4.162   4.366   4.763   5.201   6.265  12.315  12.353  12.384
 25.106  36.988 144.040
 --------------------------------------------------------------
 
          Ground-State Mulliken Net Atomic Charges

     Atom                 Charge (a.u.)
  ----------------------------------------
      1 C                    -0.801651
      2 Si                    1.015631
      3 H                    -0.198117
      4 H                    -0.187471
      5 N                    -0.829454
      6 H                     0.172009
      7 H                     0.154683
      8 H                     0.158341
      9 H                     0.265946
     10 H                     0.250082
  ----------------------------------------
  Sum of atomic charges =    -0.000000

 -----------------------------------------------------------------
                    Cartesian Multipole Moments
 -----------------------------------------------------------------
    Charge (ESU x 10^10)
                -0.0000
    Dipole Moment (Debye)
         X      -0.4549      Y      -0.3980      Z      -0.6801
       Tot       0.9099
    Quadrupole Moments (Debye-Ang)
        XX     -25.9128     XY       0.2381     YY     -29.8066
        XZ       0.8193     YZ       2.3079     ZZ     -30.2630
    Octopole Moments (Debye-Ang^2)
       XXX     -13.7126    XXY       1.0676    XYY      -1.2531
       YYY      -6.2540    XXZ       0.2387    XYZ      -2.6392
       YYZ      -2.4845    XZZ       0.0930    YZZ      -4.5454
       ZZZ       0.0255
    Hexadecapole Moments (Debye-Ang^3)
      XXXX    -238.4457   XXXY       8.2323   XXYY     -62.6752
      XYYY       4.5021   YYYY    -124.7768   XXXZ      -3.2174
      XXYZ       4.5843   XYYZ       4.1729   YYYZ       6.0526
      XXZZ     -56.4393   XYZZ      -0.4976   YYZZ     -33.9154
      XZZZ       1.8168   YZZZ       3.6135   ZZZZ     -70.0640
 -----------------------------------------------------------------
 DrvMan is completing analytic gradient of the MP2 energy
 MP2 relaxed dipole moment
            1
    1  -0.1789537
    2  -0.1565933
    3  -0.2675696
	Magnitude:	 0.358 au	 0.910 Debye
 MP2 energy read as -385.843751
 Full Analytical Gradient of MP2 Energy (in au.)
             1             2             3             4             5
    1    0.00186217   -0.00214550    0.00078307    0.00001282    0.00017153
    2   -0.00053743   -0.00291087    0.00282021    0.00220497   -0.00121833
    3    0.00020649   -0.00099821   -0.00272858    0.00263286    0.00197333
             6             7             8             9            10
    1    0.00008411    0.00033576    0.00011168   -0.00199063    0.00077500
    2    0.00003713   -0.00004212   -0.00042006    0.00188642   -0.00181992
    3   -0.00036805    0.00035050    0.00000185    0.00100470   -0.00207487
 Gradient time:  CPU 0.10 s  wall 0.09 s
 Geometry Optimization Parameters
   NAtoms,    NIC,     NZ,  NCons,   NDum,   NFix, NCnnct, MaxDiis
       10      59       0       0       0       0       0       0


** GEOMETRY OPTIMIZATION IN DELOCALIZED INTERNAL COORDINATES **
   Searching for a Minimum

   Optimization Cycle:   1

                       Coordinates (Angstroms)
     ATOM                X               Y               Z
      1  C         1.5310983228   -0.4600227504    0.0381385183
      2  Si       -0.0619254596    0.5287478783   -0.0289362663
      3  H        -0.0196666320    1.3886519411   -1.2530575216
      4  H        -0.1873602586    1.4408328594    1.1392738356
      5  N        -1.4113032074   -0.5685420106    0.0676175415
      6  H         1.5858294283   -1.0421880609    0.9612112532
      7  H         1.6019723354   -1.1565930388   -0.8028198111
      8  H         2.4043949586    0.1973737180   -0.0067502707
      9  H        -2.3245285124   -0.1923364605    0.2955748580
     10  H        -1.5011523702   -1.2982806782   -0.6304785163
   Point Group: c1    Number of degrees of freedom:    24


   Energy is   -385.843751177


 Attempting to Generate Delocalized Internal Coordinates

 24 Hessian modes will be used to form the next step
  Hessian Eigenvalues:
     0.004229    0.013748    0.025777    0.046642    0.055478    0.055668
     0.056860    0.090364    0.125408    0.160000    0.160000    0.160000
     0.160000    0.160000    0.170144    0.174287    0.209321    0.218334
     0.312861    0.343229    0.343546    0.345034    0.453309    0.453677

 Minimum Search - Taking Simple RFO Step
 Searching for Lamda that Minimizes Along All modes
 Value Taken    Lamda =  -0.00029657
 Step Taken.  Stepsize is  0.045503

                             Maximum     Tolerance    Cnvgd?
         Gradient           0.005552      0.000020      NO
         Displacement       0.022193      0.000120      NO
         Energy change     *********      0.000000      NO


 New Cartesian Coordinates Obtained by Inverse Iteration

 Displacement from previous Coordinates is:  0.049251
 ----------------------------------------------------------------
             Standard Nuclear Orientation (Angstroms)
    I     Atom           X                Y                Z
 ----------------------------------------------------------------
    1      C       1.5276994483    -0.4589533228     0.0388473110
    2      Si     -0.0570078889     0.5312734786    -0.0241237045
    3      H      -0.0234479135     1.3756433946    -1.2446754056
    4      H      -0.1863387565     1.4377412190     1.1348491120
    5      N      -1.4051738364    -0.5639027782     0.0647754838
    6      H       1.5835736393    -1.0409114452     0.9625746857
    7      H       1.5919731087    -1.1542486217    -0.8041367263
    8      H       2.4008894367     0.1987842555    -0.0091350646
    9      H      -2.3184414363    -0.1948317914     0.2901377892
   10      H      -1.4963671966    -1.2929509909    -0.6293398600
 ----------------------------------------------------------------
 Molecular Point Group                 C1    NOp =  1
 Largest Abelian Subgroup              C1    NOp =  1
 Nuclear Repulsion Energy =   116.4784265236 hartrees
 There are       17 alpha and       17 beta electrons
 Applying Cartesian multipole field
    Component          Value
    ---------          -----
     (2,0,0)        1.00000E-11
     (0,2,0)        2.00000E-11
     (0,0,2)       -3.00000E-11
 Nucleus-field energy     =     0.0000000022 hartrees
 Requested basis set is 6-311+G(d,p)
 There are 53 shells and 116 basis functions
 A cutoff of  1.0D-11 yielded   1396 shell pairs
 There are      6799 function pairs (      7167 Cartesian)
 Smallest overlap matrix eigenvalue = 7.55E-04
 Guess MOs from SCF MO coefficient file
 Reading MOs from coefficient file
 Reading MOs from coefficient file

 -----------------------------------------------------------------------
  General SCF calculation program by
  Eric Jon Sundstrom, Paul Horn, Yuezhi Mao, Dmitri Zuev, Alec White,
  David Stuck, Shaama M.S., Shane Yost, Joonho Lee, David Small,
  Daniel Levine, Susi Lehtola, Hugh Burton, Evgeny Epifanovsky
 -----------------------------------------------------------------------
 Hartree-Fock
 using 4 threads for integral computing
 -------------------------------------------------------
 OpenMP Integral computing Module                
 Release: version 1.0, May 2013, Q-Chem Inc. Pittsburgh 
 -------------------------------------------------------
 A restricted SCF calculation will be
 performed using DIIS
 SCF converges when DIIS error is below 1.0e-08
 ---------------------------------------
  Cycle       Energy         DIIS error
 ---------------------------------------
    1    -385.4050788750      4.26e-04  
    2    -385.3937621035      5.37e-05  
    3    -385.3937695237      1.76e-05  
    4    -385.3937701503      5.74e-06  
    5    -385.3937702476      2.19e-06  
    6    -385.3937702646      6.24e-07  
    7    -385.3937702663      1.70e-07  
    8    -385.3937702665      4.04e-08  
    9    -385.3937702665      1.12e-08  
   10    -385.3937702665      3.85e-09  Convergence criterion met
 ---------------------------------------
 SCF time:   CPU 5.99s  wall 2.00s 
 SCF   energy in the final basis set =     -385.3937702665
 Total energy in the final basis set =     -385.3937702665
 
 Components of the MP2 correlation energy:
        aaaa  correlation energy =        -0.0486091064 au
        abab  correlation energy =        -0.3529094070 au
        bbbb  correlation energy =        -0.0486091064 au
        non-Brillouin singles    =        -0.0000000000 au

 Total  MP2   correlation energy =                    -0.45012762 au
        MP2         total energy =                  -385.84389789 au
  Entering Z-vector solver.
   1         0           1      0.000209    0.000209
   2         0           1      0.000063    0.000063
   3         0           1      0.000016    0.000016
   4         0           1      0.000006    0.000006
   5         0           1      0.000001    0.000001
   6         1           0      0.000000    0.000000    Roots Converged
 
 --------------------------------------------------------------
 
                    Orbital Energies (a.u.)
 --------------------------------------------------------------
 
 Alpha MOs
 -- Occupied --
-68.773 -15.532 -11.202  -6.118  -4.226  -4.226  -4.225  -1.130
 -0.942  -0.697  -0.650  -0.571  -0.557  -0.525  -0.473  -0.454
 -0.394
 -- Virtual --
  0.060   0.069   0.076   0.085   0.119   0.130   0.131   0.164
  0.190   0.192   0.206   0.215   0.230   0.250   0.265   0.282
  0.291   0.313   0.314   0.350   0.379   0.385   0.446   0.486
  0.521   0.537   0.582   0.599   0.651   0.724   0.734   0.767
  0.830   0.848   0.863   0.921   0.933   0.958   1.033   1.061
  1.103   1.125   1.134   1.191   1.311   1.341   1.370   1.451
  1.487   1.554   1.564   1.626   1.722   1.725   1.782   1.828
  1.841   1.900   1.903   1.940   1.977   2.035   2.043   2.116
  2.258   2.262   2.302   2.354   2.416   2.507   2.519   2.755
  2.772   2.792   2.806   2.838   2.865   2.879   2.905   2.964
  3.027   3.059   3.117   3.188   3.286   3.466   3.635   4.147
  4.161   4.367   4.772   5.209   6.271  12.325  12.362  12.389
 25.105  36.996 144.049
 --------------------------------------------------------------
 
          Ground-State Mulliken Net Atomic Charges

     Atom                 Charge (a.u.)
  ----------------------------------------
      1 C                    -0.803071
      2 Si                    1.023830
      3 H                    -0.199493
      4 H                    -0.188590
      5 N                    -0.833183
      6 H                     0.172213
      7 H                     0.154947
      8 H                     0.158132
      9 H                     0.265505
     10 H                     0.249711
  ----------------------------------------
  Sum of atomic charges =    -0.000000

 -----------------------------------------------------------------
                    Cartesian Multipole Moments
 -----------------------------------------------------------------
    Charge (ESU x 10^10)
                 0.0000
    Dipole Moment (Debye)
         X      -0.4289      Y      -0.3710      Z      -0.6624
       Tot       0.8720
    Quadrupole Moments (Debye-Ang)
        XX     -25.9176     XY       0.2654     YY     -29.7279
        XZ       0.8173     YZ       2.2991     ZZ     -30.2001
    Octopole Moments (Debye-Ang^2)
       XXX     -13.9118    XXY       1.0564    XYY      -1.3174
       YYY      -6.1885    XXZ       0.1599    XYZ      -2.6214
       YYZ      -2.5098    XZZ       0.0482    YZZ      -4.5332
       ZZZ      -0.0996
    Hexadecapole Moments (Debye-Ang^3)
      XXXX    -237.3364   XXXY       8.4207   XXYY     -62.2840
      XYYY       4.4970   YYYY    -123.9053   XXXZ      -3.1981
      XXYZ       4.4772   XYYZ       4.0882   YYYZ       5.8248
      XXZZ     -56.1063   XYZZ      -0.5068   YYZZ     -33.6632
      XZZZ       1.6967   YZZZ       3.4134   ZZZZ     -69.4813
 -----------------------------------------------------------------
 DrvMan is completing analytic gradient of the MP2 energy
 MP2 relaxed dipole moment
            1
    1  -0.1687579
    2  -0.1459648
    3  -0.2606217
	Magnitude:	 0.343 au	 0.872 Debye
 MP2 energy read as -385.843898
 Full Analytical Gradient of MP2 Energy (in au.)
             1             2             3             4             5
    1    0.00001544   -0.00035506    0.00008121    0.00007887   -0.00022388
    2    0.00009673    0.00030887   -0.00012076   -0.00013700   -0.00060066
    3   -0.00020084   -0.00016170    0.00045826   -0.00034228    0.00039071
             6             7             8             9            10
    1   -0.00012062    0.00013508   -0.00008529    0.00025831    0.00021593
    2   -0.00001664   -0.00012586    0.00004588    0.00035086    0.00019858
    3    0.00008002   -0.00000767   -0.00000576   -0.00009596   -0.00011480
 Gradient time:  CPU 0.12 s  wall 0.12 s
 Geometry Optimization Parameters
   NAtoms,    NIC,     NZ,  NCons,   NDum,   NFix, NCnnct, MaxDiis
       10      59       0       0       0       0       0       0

 Cartesian Hessian Update
 Hessian Updated using BFGS Update


** GEOMETRY OPTIMIZATION IN DELOCALIZED INTERNAL COORDINATES **
   Searching for a Minimum

   Optimization Cycle:   2

                       Coordinates (Angstroms)
     ATOM                X               Y               Z
      1  C         1.5276994483   -0.4589533228    0.0388473110
      2  Si       -0.0570078889    0.5312734786   -0.0241237045
      3  H        -0.0234479135    1.3756433946   -1.2446754056
      4  H        -0.1863387565    1.4377412190    1.1348491120
      5  N        -1.4051738364   -0.5639027782    0.0647754838
      6  H         1.5835736393   -1.0409114452    0.9625746857
      7  H         1.5919731087   -1.1542486217   -0.8041367263
      8  H         2.4008894367    0.1987842555   -0.0091350646
      9  H        -2.3184414363   -0.1948317914    0.2901377892
     10  H        -1.4963671966   -1.2929509909   -0.6293398600
   Point Group: c1    Number of degrees of freedom:    24


   Energy is   -385.843897886

 Hessian Updated using BFGS Update

 21 Hessian modes will be used to form the next step
  Hessian Eigenvalues:
     0.004229    0.013748    0.025447    0.045871    0.055276    0.055695
     0.056049    0.089523    0.125005    0.149476    0.160315    0.172362
     0.192131    0.212488    0.218745    0.314732    0.343408    0.343510
     0.345252    0.453407    0.457500

 Minimum Search - Taking Simple RFO Step
 Searching for Lamda that Minimizes Along All modes
 Value Taken    Lamda =  -0.00001063
 Step Taken.  Stepsize is  0.014481

                             Maximum     Tolerance    Cnvgd?
         Gradient           0.000569      0.000020      NO
         Displacement       0.008117      0.000120      NO
         Energy change     -0.000147      0.000000      NO


 New Cartesian Coordinates Obtained by Inverse Iteration

 Displacement from previous Coordinates is:  0.011603
 ----------------------------------------------------------------
             Standard Nuclear Orientation (Angstroms)
    I     Atom           X                Y                Z
 ----------------------------------------------------------------
    1      C       1.5277561376    -0.4588236971     0.0395170098
    2      Si     -0.0560588907     0.5326036198    -0.0240482308
    3      H      -0.0227896985     1.3759860985    -1.2464221136
    4      H      -0.1868669285     1.4386440713     1.1359936617
    5      N      -1.4050063533    -0.5620423381     0.0625996814
    6      H       1.5841066269    -1.0416307102     0.9625756991
    7      H       1.5898409715    -1.1531596920    -0.8042521894
    8      H       2.4020239851     0.1975632055    -0.0089228025
    9      H      -2.3193392456    -0.1975167214     0.2911654958
   10      H      -1.4963079997    -1.2939804389    -0.6284325907
 ----------------------------------------------------------------
 Molecular Point Group                 C1    NOp =  1
 Largest Abelian Subgroup              C1    NOp =  1
 Nuclear Repulsion Energy =   116.4646653058 hartrees
 There are       17 alpha and       17 beta electrons
 Applying Cartesian multipole field
    Component          Value
    ---------          -----
     (2,0,0)        1.00000E-11
     (0,2,0)        2.00000E-11
     (0,0,2)       -3.00000E-11
 Nucleus-field energy     =     0.0000000022 hartrees
 Requested basis set is 6-311+G(d,p)
 There are 53 shells and 116 basis functions
 A cutoff of  1.0D-11 yielded   1396 shell pairs
 There are      6799 function pairs (      7167 Cartesian)
 Smallest overlap matrix eigenvalue = 7.56E-04
 Guess MOs from SCF MO coefficient file
 Reading MOs from coefficient file
 Reading MOs from coefficient file

 -----------------------------------------------------------------------
  General SCF calculation program by
  Eric Jon Sundstrom, Paul Horn, Yuezhi Mao, Dmitri Zuev, Alec White,
  David Stuck, Shaama M.S., Shane Yost, Joonho Lee, David Small,
  Daniel Levine, Susi Lehtola, Hugh Burton, Evgeny Epifanovsky
 -----------------------------------------------------------------------
 Hartree-Fock
 using 4 threads for integral computing
 -------------------------------------------------------
 OpenMP Integral computing Module                
 Release: version 1.0, May 2013, Q-Chem Inc. Pittsburgh 
 -------------------------------------------------------
 A restricted SCF calculation will be
 performed using DIIS
 SCF converges when DIIS error is below 1.0e-08
 ---------------------------------------
  Cycle       Energy         DIIS error
 ---------------------------------------
    1    -385.3939732222      7.55e-05  
    2    -385.3937918233      1.56e-05  
    3    -385.3937923652      5.43e-06  
    4    -385.3937924413      2.36e-06  
    5    -385.3937924594      6.96e-07  
    6    -385.3937924618      1.65e-07  
    7    -385.3937924620      4.99e-08  
    8    -385.3937924620      1.56e-08  
    9    -385.3937924620      3.27e-09  Convergence criterion met
 ---------------------------------------
 SCF time:   CPU 5.39s  wall 1.00s 
 SCF   energy in the final basis set =     -385.3937924620
 Total energy in the final basis set =     -385.3937924620
 
 Components of the MP2 correlation energy:
        aaaa  correlation energy =        -0.0486068406 au
        abab  correlation energy =        -0.3528993711 au
        bbbb  correlation energy =        -0.0486068406 au
        non-Brillouin singles    =        -0.0000000000 au

 Total  MP2   correlation energy =                    -0.45011305 au
        MP2         total energy =                  -385.84390551 au
  Entering Z-vector solver.
   1         0           1      0.000209    0.000209
   2         0           1      0.000063    0.000063
   3         0           1      0.000016    0.000016
   4         0           1      0.000006    0.000006
   5         0           1      0.000001    0.000001
   6         1           0      0.000000    0.000000    Roots Converged
 
 --------------------------------------------------------------
 
                    Orbital Energies (a.u.)
 --------------------------------------------------------------
 
 Alpha MOs
 -- Occupied --
-68.774 -15.531 -11.202  -6.119  -4.226  -4.226  -4.225  -1.130
 -0.942  -0.698  -0.650  -0.570  -0.557  -0.525  -0.473  -0.454
 -0.394
 -- Virtual --
  0.060   0.069   0.076   0.085   0.119   0.130   0.131   0.164
  0.190   0.192   0.206   0.215   0.230   0.250   0.265   0.282
  0.291   0.313   0.314   0.351   0.379   0.385   0.446   0.486
  0.521   0.538   0.582   0.598   0.651   0.725   0.734   0.767
  0.830   0.848   0.863   0.921   0.933   0.958   1.033   1.061
  1.103   1.125   1.134   1.191   1.310   1.341   1.370   1.451
  1.488   1.553   1.564   1.626   1.722   1.725   1.782   1.828
  1.841   1.900   1.904   1.940   1.977   2.034   2.044   2.116
  2.258   2.262   2.302   2.354   2.415   2.507   2.519   2.754
  2.772   2.792   2.805   2.838   2.864   2.879   2.905   2.964
  3.026   3.060   3.117   3.188   3.286   3.467   3.635   4.147
  4.161   4.366   4.773   5.209   6.270  12.325  12.361  12.389
 25.106  36.996 144.049
 --------------------------------------------------------------
 
          Ground-State Mulliken Net Atomic Charges

     Atom                 Charge (a.u.)
  ----------------------------------------
      1 C                    -0.802516
      2 Si                    1.024157
      3 H                    -0.199358
      4 H                    -0.188537
      5 N                    -0.834673
      6 H                     0.172266
      7 H                     0.154836
      8 H                     0.158183
      9 H                     0.265792
     10 H                     0.249850
  ----------------------------------------
  Sum of atomic charges =    -0.000000

 -----------------------------------------------------------------
                    Cartesian Multipole Moments
 -----------------------------------------------------------------
    Charge (ESU x 10^10)
                -0.0000
    Dipole Moment (Debye)
         X      -0.4247      Y      -0.3785      Z      -0.6508
       Tot       0.8645
    Quadrupole Moments (Debye-Ang)
        XX     -25.9137     XY       0.2882     YY     -29.7144
        XZ       0.7978     YZ       2.2908     ZZ     -30.2054
    Octopole Moments (Debye-Ang^2)
       XXX     -13.9460    XXY       0.9785    XYY      -1.3558
       YYY      -6.2870    XXZ       0.2202    XYZ      -2.6073
       YYZ      -2.4892    XZZ       0.0418    YZZ      -4.5653
       ZZZ      -0.0615
    Hexadecapole Moments (Debye-Ang^3)
      XXXX    -237.2199   XXXY       8.5528   XXYY     -62.2570
      XYYY       4.5557   YYYY    -123.9426   XXXZ      -3.3374
      XXYZ       4.4333   XYYZ       4.0667   YYYZ       5.8013
      XXZZ     -56.1197   XYZZ      -0.5005   YYZZ     -33.6847
      XZZZ       1.6162   YZZZ       3.3945   ZZZZ     -69.5423
 -----------------------------------------------------------------
 DrvMan is completing analytic gradient of the MP2 energy
 MP2 relaxed dipole moment
            1
    1  -0.1671055
    2  -0.1489299
    3  -0.2560555
	Magnitude:	 0.340 au	 0.864 Debye
 MP2 energy read as -385.843906
 Full Analytical Gradient of MP2 Energy (in au.)
             1             2             3             4             5
    1   -0.00006785    0.00010869   -0.00002948    0.00002973   -0.00009766
    2   -0.00002630    0.00019671   -0.00002013   -0.00003523   -0.00042005
    3   -0.00013922   -0.00006019    0.00008852   -0.00006615    0.00028533
             6             7             8             9            10
    1   -0.00004295    0.00006271   -0.00002893    0.00004284    0.00002290
    2   -0.00000466   -0.00001753    0.00004621    0.00015797    0.00012302
    3    0.00004146    0.00004183    0.00001164   -0.00012691   -0.00007632
 Gradient time:  CPU 0.10 s  wall 0.10 s
 Geometry Optimization Parameters
   NAtoms,    NIC,     NZ,  NCons,   NDum,   NFix, NCnnct, MaxDiis
       10      59       0       0       0       0       0       0

 Cartesian Hessian Update
 Hessian Updated using BFGS Update


** GEOMETRY OPTIMIZATION IN DELOCALIZED INTERNAL COORDINATES **
   Searching for a Minimum

   Optimization Cycle:   3

                       Coordinates (Angstroms)
     ATOM                X               Y               Z
      1  C         1.5277561376   -0.4588236971    0.0395170098
      2  Si       -0.0560588907    0.5326036198   -0.0240482308
      3  H        -0.0227896985    1.3759860985   -1.2464221136
      4  H        -0.1868669285    1.4386440713    1.1359936617
      5  N        -1.4050063533   -0.5620423381    0.0625996814
      6  H         1.5841066269   -1.0416307102    0.9625756991
      7  H         1.5898409715   -1.1531596920   -0.8042521894
      8  H         2.4020239851    0.1975632055   -0.0089228025
      9  H        -2.3193392456   -0.1975167214    0.2911654958
     10  H        -1.4963079997   -1.2939804389   -0.6284325907
   Point Group: c1    Number of degrees of freedom:    24


   Energy is   -385.843905514

 Hessian Updated using BFGS Update

 22 Hessian modes will be used to form the next step
  Hessian Eigenvalues:
     0.004215    0.012969    0.014846    0.046178    0.054677    0.055591
     0.057516    0.090799    0.126462    0.137234    0.160054    0.160363
     0.172492    0.194704    0.209830    0.218657    0.326617    0.343499
     0.344877    0.346888    0.453449    0.458301

 Minimum Search - Taking Simple RFO Step
 Searching for Lamda that Minimizes Along All modes
 Value Taken    Lamda =  -0.00000649
 Step Taken.  Stepsize is  0.020849

                             Maximum     Tolerance    Cnvgd?
         Gradient           0.000186      0.000020      NO
         Displacement       0.012740      0.000120      NO
         Energy change     -0.000008      0.000000      NO


 New Cartesian Coordinates Obtained by Inverse Iteration

 Displacement from previous Coordinates is:  0.015445
 ----------------------------------------------------------------
             Standard Nuclear Orientation (Angstroms)
    I     Atom           X                Y                Z
 ----------------------------------------------------------------
    1      C       1.5275552060    -0.4585549317     0.0401702604
    2      Si     -0.0555335756     0.5341412627    -0.0243175379
    3      H      -0.0203247261     1.3770769870    -1.2473885546
    4      H      -0.1882036039     1.4395726840     1.1363673395
    5      N      -1.4048846834    -0.5596092692     0.0594034922
    6      H       1.5842316406    -1.0421242637     0.9626028160
    7      H       1.5870466372    -1.1522347315    -0.8043587440
    8      H       2.4031332190     0.1960398158    -0.0091439076
    9      H      -2.3200305748    -0.2010104514     0.2937492096
   10      H      -1.4956309340    -1.2956537046    -0.6273107528
 ----------------------------------------------------------------
 Molecular Point Group                 C1    NOp =  1
 Largest Abelian Subgroup              C1    NOp =  1
 Nuclear Repulsion Energy =   116.4629623815 hartrees
 There are       17 alpha and       17 beta electrons
 Applying Cartesian multipole field
    Component          Value
    ---------          -----
     (2,0,0)        1.00000E-11
     (0,2,0)        2.00000E-11
     (0,0,2)       -3.00000E-11
 Nucleus-field energy     =     0.0000000022 hartrees
 Requested basis set is 6-311+G(d,p)
 There are 53 shells and 116 basis functions
 A cutoff of  1.0D-11 yielded   1396 shell pairs
 There are      6799 function pairs (      7167 Cartesian)
 Smallest overlap matrix eigenvalue = 7.58E-04
 Guess MOs from SCF MO coefficient file
 Reading MOs from coefficient file
 Reading MOs from coefficient file

 -----------------------------------------------------------------------
  General SCF calculation program by
  Eric Jon Sundstrom, Paul Horn, Yuezhi Mao, Dmitri Zuev, Alec White,
  David Stuck, Shaama M.S., Shane Yost, Joonho Lee, David Small,
  Daniel Levine, Susi Lehtola, Hugh Burton, Evgeny Epifanovsky
 -----------------------------------------------------------------------
 Hartree-Fock
 using 4 threads for integral computing
 -------------------------------------------------------
 OpenMP Integral computing Module                
 Release: version 1.0, May 2013, Q-Chem Inc. Pittsburgh 
 -------------------------------------------------------
 A restricted SCF calculation will be
 performed using DIIS
 SCF converges when DIIS error is below 1.0e-08
 ---------------------------------------
  Cycle       Energy         DIIS error
 ---------------------------------------
    1    -385.3945385793      1.01e-04  
    2    -385.3938169296      2.27e-05  
    3    -385.3938180435      9.27e-06  
    4    -385.3938182255      3.45e-06  
    5    -385.3938182673      9.62e-07  
    6    -385.3938182724      2.22e-07  
    7    -385.3938182727      5.93e-08  
    8    -385.3938182727      1.81e-08  
    9    -385.3938182727      4.61e-09  Convergence criterion met
 ---------------------------------------
 SCF time:   CPU 5.36s  wall 1.00s 
 SCF   energy in the final basis set =     -385.3938182727
 Total energy in the final basis set =     -385.3938182727
 
 Components of the MP2 correlation energy:
        aaaa  correlation energy =        -0.0486042806 au
        abab  correlation energy =        -0.3528826660 au
        bbbb  correlation energy =        -0.0486042806 au
        non-Brillouin singles    =        -0.0000000000 au

 Total  MP2   correlation energy =                    -0.45009123 au
        MP2         total energy =                  -385.84390950 au
  Entering Z-vector solver.
   1         0           1      0.000209    0.000209
   2         0           1      0.000063    0.000063
   3         0           1      0.000015    0.000015
   4         0           1      0.000006    0.000006
   5         0           1      0.000001    0.000001
   6         1           0      0.000000    0.000000    Roots Converged
 
 --------------------------------------------------------------
 
                    Orbital Energies (a.u.)
 --------------------------------------------------------------
 
 Alpha MOs
 -- Occupied --
-68.774 -15.531 -11.202  -6.119  -4.226  -4.226  -4.225  -1.130
 -0.942  -0.698  -0.650  -0.570  -0.557  -0.525  -0.473  -0.454
 -0.393
 -- Virtual --
  0.060   0.069   0.076   0.085   0.119   0.130   0.131   0.163
  0.190   0.192   0.206   0.215   0.230   0.250   0.265   0.282
  0.291   0.312   0.314   0.351   0.380   0.385   0.447   0.486
  0.521   0.538   0.582   0.598   0.651   0.725   0.735   0.766
  0.830   0.848   0.862   0.922   0.933   0.957   1.034   1.061
  1.103   1.125   1.135   1.191   1.310   1.341   1.370   1.452
  1.487   1.553   1.565   1.627   1.722   1.725   1.783   1.828
  1.841   1.899   1.904   1.939   1.977   2.034   2.044   2.116
  2.258   2.263   2.303   2.355   2.415   2.507   2.519   2.754
  2.772   2.791   2.803   2.838   2.863   2.879   2.905   2.965
  3.026   3.062   3.117   3.188   3.287   3.467   3.635   4.147
  4.161   4.365   4.773   5.209   6.270  12.325  12.361  12.389
 25.106  36.996 144.048
 --------------------------------------------------------------
 
          Ground-State Mulliken Net Atomic Charges

     Atom                 Charge (a.u.)
  ----------------------------------------
      1 C                    -0.801709
      2 Si                    1.024668
      3 H                    -0.199284
      4 H                    -0.188608
      5 N                    -0.836597
      6 H                     0.172209
      7 H                     0.154591
      8 H                     0.158228
      9 H                     0.266305
     10 H                     0.250196
  ----------------------------------------
  Sum of atomic charges =     0.000000

 -----------------------------------------------------------------
                    Cartesian Multipole Moments
 -----------------------------------------------------------------
    Charge (ESU x 10^10)
                -0.0000
    Dipole Moment (Debye)
         X      -0.4260      Y      -0.3916      Z      -0.6343
       Tot       0.8586
    Quadrupole Moments (Debye-Ang)
        XX     -25.9104     XY       0.3205     YY     -29.6951
        XZ       0.7645     YZ       2.2785     ZZ     -30.2066
    Octopole Moments (Debye-Ang^2)
       XXX     -13.9730    XXY       0.8820    XYY      -1.4088
       YYY      -6.4163    XXZ       0.3217    XYZ      -2.5820
       YYZ      -2.4568    XZZ       0.0311    YZZ      -4.6054
       ZZZ       0.0078
    Hexadecapole Moments (Debye-Ang^3)
      XXXX    -237.0670   XXXY       8.7326   XXYY     -62.2108
      XYYY       4.6496   YYYY    -123.9647   XXXZ      -3.5621
      XXYZ       4.3695   XYYZ       4.0407   YYYZ       5.7750
      XXZZ     -56.1132   XYZZ      -0.4831   YYZZ     -33.6989
      XZZZ       1.5178   YZZZ       3.3672   ZZZZ     -69.5664
 -----------------------------------------------------------------
 DrvMan is completing analytic gradient of the MP2 energy
 MP2 relaxed dipole moment
            1
    1  -0.1676198
    2  -0.1540804
    3  -0.2495527
	Magnitude:	 0.338 au	 0.859 Debye
 MP2 energy read as -385.843909
 Full Analytical Gradient of MP2 Energy (in au.)
             1             2             3             4             5
    1   -0.00006512    0.00025108   -0.00006257    0.00000518    0.00004522
    2   -0.00005828    0.00011653    0.00000206   -0.00001122   -0.00010554
    3   -0.00000470   -0.00002886   -0.00007873    0.00006013    0.00019178
             6             7             8             9            10
    1    0.00001711   -0.00000942    0.00001758   -0.00011610   -0.00008298
    2    0.00001520    0.00003889    0.00001146   -0.00000250   -0.00000661
    3   -0.00000732    0.00001972    0.00002031   -0.00009865   -0.00007368
 Gradient time:  CPU 0.12 s  wall 0.12 s
 Geometry Optimization Parameters
   NAtoms,    NIC,     NZ,  NCons,   NDum,   NFix, NCnnct, MaxDiis
       10      59       0       0       0       0       0       0

 Cartesian Hessian Update
 Hessian Updated using BFGS Update


** GEOMETRY OPTIMIZATION IN DELOCALIZED INTERNAL COORDINATES **
   Searching for a Minimum

   Optimization Cycle:   4

                       Coordinates (Angstroms)
     ATOM                X               Y               Z
      1  C         1.5275552060   -0.4585549317    0.0401702604
      2  Si       -0.0555335756    0.5341412627   -0.0243175379
      3  H        -0.0203247261    1.3770769870   -1.2473885546
      4  H        -0.1882036039    1.4395726840    1.1363673395
      5  N        -1.4048846834   -0.5596092692    0.0594034922
      6  H         1.5842316406   -1.0421242637    0.9626028160
      7  H         1.5870466372   -1.1522347315   -0.8043587440
      8  H         2.4031332190    0.1960398158   -0.0091439076
      9  H        -2.3200305748   -0.2010104514    0.2937492096
     10  H        -1.4956309340   -1.2956537046   -0.6273107528
   Point Group: c1    Number of degrees of freedom:    24


   Energy is   -385.843909500

 Hessian Updated using BFGS Update

 23 Hessian modes will be used to form the next step
  Hessian Eigenvalues:
     0.004102    0.008921    0.014284    0.046372    0.054995    0.055580
     0.058448    0.090868    0.124867    0.148590    0.159986    0.160076
     0.160253    0.172604    0.200523    0.209283    0.219461    0.328952
     0.343505    0.344780    0.348773    0.453630    0.464034

 Minimum Search - Taking Simple RFO Step
 Searching for Lamda that Minimizes Along All modes
 Value Taken    Lamda =  -0.00000155
 Step Taken.  Stepsize is  0.012405

                             Maximum     Tolerance    Cnvgd?
         Gradient           0.000136      0.000020      NO
         Displacement       0.007385      0.000120      NO
         Energy change     -0.000004      0.000000      NO


 New Cartesian Coordinates Obtained by Inverse Iteration

 Displacement from previous Coordinates is:  0.008667
 ----------------------------------------------------------------
             Standard Nuclear Orientation (Angstroms)
    I     Atom           X                Y                Z
 ----------------------------------------------------------------
    1      C       1.5273261432    -0.4584761612     0.0403249205
    2      Si     -0.0555913191     0.5346883722    -0.0245591371
    3      H      -0.0184579475     1.3781046331    -1.2472028821
    4      H      -0.1892654758     1.4399159303     1.1361957963
    5      N      -1.4048562112    -0.5585401842     0.0575147769
    6      H       1.5841327376    -1.0419443535     0.9628054091
    7      H       1.5858244802    -1.1524563066    -0.8041078758
    8      H       2.4033210608     0.1954535404    -0.0098319724
    9      H      -2.3199125556    -0.2026410808     0.2957229247
   10      H      -1.4951623077    -1.2964609921    -0.6270883393
 ----------------------------------------------------------------
 Molecular Point Group                 C1    NOp =  1
 Largest Abelian Subgroup              C1    NOp =  1
 Nuclear Repulsion Energy =   116.4695661809 hartrees
 There are       17 alpha and       17 beta electrons
 Applying Cartesian multipole field
    Component          Value
    ---------          -----
     (2,0,0)        1.00000E-11
     (0,2,0)        2.00000E-11
     (0,0,2)       -3.00000E-11
 Nucleus-field energy     =     0.0000000022 hartrees
 Requested basis set is 6-311+G(d,p)
 There are 53 shells and 116 basis functions
 A cutoff of  1.0D-11 yielded   1396 shell pairs
 There are      6799 function pairs (      7167 Cartesian)
 Smallest overlap matrix eigenvalue = 7.60E-04
 Guess MOs from SCF MO coefficient file
 Reading MOs from coefficient file
 Reading MOs from coefficient file

 -----------------------------------------------------------------------
  General SCF calculation program by
  Eric Jon Sundstrom, Paul Horn, Yuezhi Mao, Dmitri Zuev, Alec White,
  David Stuck, Shaama M.S., Shane Yost, Joonho Lee, David Small,
  Daniel Levine, Susi Lehtola, Hugh Burton, Evgeny Epifanovsky
 -----------------------------------------------------------------------
 Hartree-Fock
 using 4 threads for integral computing
 -------------------------------------------------------
 OpenMP Integral computing Module                
 Release: version 1.0, May 2013, Q-Chem Inc. Pittsburgh 
 -------------------------------------------------------
 A restricted SCF calculation will be
 performed using DIIS
 SCF converges when DIIS error is below 1.0e-08
 ---------------------------------------
  Cycle       Energy         DIIS error
 ---------------------------------------
    1    -385.3944200216      5.69e-05  
    2    -385.3938351259      1.28e-05  
    3    -385.3938354670      5.96e-06  
    4    -385.3938355334      1.87e-06  
    5    -385.3938355472      5.15e-07  
    6    -385.3938355488      1.17e-07  
    7    -385.3938355489      2.96e-08  
    8    -385.3938355489      7.82e-09  Convergence criterion met
 ---------------------------------------
 SCF time:   CPU 4.76s  wall 2.00s 
 SCF   energy in the final basis set =     -385.3938355489
 Total energy in the final basis set =     -385.3938355489
 
 Components of the MP2 correlation energy:
        aaaa  correlation energy =        -0.0486028067 au
        abab  correlation energy =        -0.3528693658 au
        bbbb  correlation energy =        -0.0486028067 au
        non-Brillouin singles    =        -0.0000000000 au

 Total  MP2   correlation energy =                    -0.45007498 au
        MP2         total energy =                  -385.84391053 au
  Entering Z-vector solver.
   1         0           1      0.000209    0.000209
   2         0           1      0.000063    0.000063
   3         0           1      0.000015    0.000015
   4         0           1      0.000006    0.000006
   5         0           1      0.000001    0.000001
   6         1           0      0.000000    0.000000    Roots Converged
 
 --------------------------------------------------------------
 
                    Orbital Energies (a.u.)
 --------------------------------------------------------------
 
 Alpha MOs
 -- Occupied --
-68.774 -15.531 -11.202  -6.119  -4.226  -4.226  -4.225  -1.130
 -0.942  -0.698  -0.650  -0.570  -0.557  -0.525  -0.473  -0.454
 -0.393
 -- Virtual --
  0.060   0.069   0.076   0.085   0.119   0.130   0.131   0.163
  0.190   0.192   0.206   0.215   0.230   0.250   0.265   0.282
  0.291   0.312   0.314   0.351   0.380   0.385   0.447   0.486
  0.521   0.538   0.582   0.598   0.651   0.725   0.735   0.766
  0.830   0.848   0.862   0.922   0.933   0.957   1.034   1.061
  1.103   1.125   1.135   1.191   1.310   1.341   1.370   1.452
  1.487   1.553   1.565   1.628   1.723   1.725   1.784   1.828
  1.841   1.899   1.904   1.939   1.977   2.034   2.044   2.115
  2.259   2.263   2.303   2.355   2.415   2.507   2.519   2.754
  2.772   2.790   2.802   2.838   2.862   2.879   2.905   2.966
  3.026   3.063   3.117   3.188   3.288   3.466   3.635   4.147
  4.162   4.365   4.774   5.210   6.270  12.325  12.361  12.389
 25.106  36.997 144.048
 --------------------------------------------------------------
 
          Ground-State Mulliken Net Atomic Charges

     Atom                 Charge (a.u.)
  ----------------------------------------
      1 C                    -0.801271
      2 Si                    1.024835
      3 H                    -0.199293
      4 H                    -0.188675
      5 N                    -0.837485
      6 H                     0.172125
      7 H                     0.154463
      8 H                     0.158223
      9 H                     0.266604
     10 H                     0.250475
  ----------------------------------------
  Sum of atomic charges =    -0.000000

 -----------------------------------------------------------------
                    Cartesian Multipole Moments
 -----------------------------------------------------------------
    Charge (ESU x 10^10)
                -0.0000
    Dipole Moment (Debye)
         X      -0.4295      Y      -0.3997      Z      -0.6250
       Tot       0.8572
    Quadrupole Moments (Debye-Ang)
        XX     -25.9108     XY       0.3367     YY     -29.6866
        XZ       0.7441     YZ       2.2729     ZZ     -30.2038
    Octopole Moments (Debye-Ang^2)
       XXX     -13.9769    XXY       0.8389    XYY      -1.4331
       YYY      -6.4757    XXZ       0.3811    XYZ      -2.5668
       YYZ      -2.4384    XZZ       0.0223    YZZ      -4.6244
       ZZZ       0.0524
    Hexadecapole Moments (Debye-Ang^3)
      XXXX    -237.0103   XXXY       8.8225   XXYY     -62.1825
      XYYY       4.7005   YYYY    -123.9759   XXXZ      -3.6996
      XXYZ       4.3371   XYYZ       4.0276   YYYZ       5.7663
      XXZZ     -56.0944   XYZZ      -0.4678   YYZZ     -33.7008
      XZZZ       1.4713   YZZZ       3.3500   ZZZZ     -69.5559
 -----------------------------------------------------------------
 DrvMan is completing analytic gradient of the MP2 energy
 MP2 relaxed dipole moment
            1
    1  -0.1689695
    2  -0.1572448
    3  -0.2459005
	Magnitude:	 0.337 au	 0.857 Debye
 MP2 energy read as -385.843911
 Full Analytical Gradient of MP2 Energy (in au.)
             1             2             3             4             5
    1   -0.00002483    0.00012664   -0.00003167    0.00000053    0.00004786
    2   -0.00002769    0.00004582    0.00000164   -0.00000009    0.00000901
    3    0.00003043   -0.00001939   -0.00006515    0.00005391    0.00010132
             6             7             8             9            10
    1    0.00001817   -0.00001958    0.00001650   -0.00008211   -0.00005152
    2    0.00000805    0.00002794   -0.00000720   -0.00003418   -0.00002331
    3   -0.00001317   -0.00000426    0.00001082   -0.00005702   -0.00003748
 Gradient time:  CPU 0.09 s  wall 0.08 s
 Geometry Optimization Parameters
   NAtoms,    NIC,     NZ,  NCons,   NDum,   NFix, NCnnct, MaxDiis
       10      59       0       0       0       0       0       0

 Cartesian Hessian Update
 Hessian Updated using BFGS Update


** GEOMETRY OPTIMIZATION IN DELOCALIZED INTERNAL COORDINATES **
   Searching for a Minimum

   Optimization Cycle:   5

                       Coordinates (Angstroms)
     ATOM                X               Y               Z
      1  C         1.5273261432   -0.4584761612    0.0403249205
      2  Si       -0.0555913191    0.5346883722   -0.0245591371
      3  H        -0.0184579475    1.3781046331   -1.2472028821
      4  H        -0.1892654758    1.4399159303    1.1361957963
      5  N        -1.4048562112   -0.5585401842    0.0575147769
      6  H         1.5841327376   -1.0419443535    0.9628054091
      7  H         1.5858244802   -1.1524563066   -0.8041078758
      8  H         2.4033210608    0.1954535404   -0.0098319724
      9  H        -2.3199125556   -0.2026410808    0.2957229247
     10  H        -1.4951623077   -1.2964609921   -0.6270883393
   Point Group: c1    Number of degrees of freedom:    24


   Energy is   -385.843910528

 Hessian Updated using BFGS Update

 24 Hessian modes will be used to form the next step
  Hessian Eigenvalues:
     0.003635    0.007289    0.014753    0.046084    0.055213    0.055549
     0.056028    0.090456    0.124322    0.145750    0.159917    0.160001
     0.160085    0.161400    0.172501    0.197622    0.209980    0.219294
     0.312394    0.343500    0.344712    0.345312    0.453615    0.456129

 Minimum Search - Taking Simple RFO Step
 Searching for Lamda that Minimizes Along All modes
 Value Taken    Lamda =   0.00000000
 Step Taken.  Stepsize is  0.008427

                             Maximum     Tolerance    Cnvgd?
         Gradient           0.000122      0.000020      NO
         Displacement       0.004303      0.000120      NO
         Energy change     -0.000001      0.000000      NO


 New Cartesian Coordinates Obtained by Inverse Iteration

 Displacement from previous Coordinates is:  0.005967
 ----------------------------------------------------------------
             Standard Nuclear Orientation (Angstroms)
    I     Atom           X                Y                Z
 ----------------------------------------------------------------
    1      C       1.5272382305    -0.4584797119     0.0403237174
    2      Si     -0.0557226675     0.5347283591    -0.0247828762
    3      H      -0.0172983611     1.3789113674    -1.2467281535
    4      H      -0.1899793209     1.4397678566     1.1359634168
    5      N      -1.4049312352    -0.5581222237     0.0562688930
    6      H       1.5842234373    -1.0413461267     0.9631957937
    7      H       1.5854639474    -1.1531768638    -0.8035812896
    8      H       2.4032197593     0.1953745705    -0.0106577149
    9      H      -2.3195761153    -0.2033319382     0.2972696962
   10      H      -1.4952790696    -1.2966818919    -0.6274978619
 ----------------------------------------------------------------
 Molecular Point Group                 C1    NOp =  1
 Largest Abelian Subgroup              C1    NOp =  1
 Nuclear Repulsion Energy =   116.4752280319 hartrees
 There are       17 alpha and       17 beta electrons
 Applying Cartesian multipole field
    Component          Value
    ---------          -----
     (2,0,0)        1.00000E-11
     (0,2,0)        2.00000E-11
     (0,0,2)       -3.00000E-11
 Nucleus-field energy     =     0.0000000022 hartrees
 Requested basis set is 6-311+G(d,p)
 There are 53 shells and 116 basis functions
 A cutoff of  1.0D-11 yielded   1396 shell pairs
 There are      6799 function pairs (      7167 Cartesian)
 Smallest overlap matrix eigenvalue = 7.60E-04
 Guess MOs from SCF MO coefficient file
 Reading MOs from coefficient file
 Reading MOs from coefficient file

 -----------------------------------------------------------------------
  General SCF calculation program by
  Eric Jon Sundstrom, Paul Horn, Yuezhi Mao, Dmitri Zuev, Alec White,
  David Stuck, Shaama M.S., Shane Yost, Joonho Lee, David Small,
  Daniel Levine, Susi Lehtola, Hugh Burton, Evgeny Epifanovsky
 -----------------------------------------------------------------------
 Hartree-Fock
 using 4 threads for integral computing
 -------------------------------------------------------
 OpenMP Integral computing Module                
 Release: version 1.0, May 2013, Q-Chem Inc. Pittsburgh 
 -------------------------------------------------------
 A restricted SCF calculation will be
 performed using DIIS
 SCF converges when DIIS error is below 1.0e-08
 ---------------------------------------
  Cycle       Energy         DIIS error
 ---------------------------------------
    1    -385.3942400186      3.50e-05  
    2    -385.3938461892      7.67e-06  
    3    -385.3938463214      3.69e-06  
    4    -385.3938463470      1.15e-06  
    5    -385.3938463524      2.93e-07  
    6    -385.3938463529      6.75e-08  
    7    -385.3938463529      1.79e-08  
    8    -385.3938463529      4.58e-09  Convergence criterion met
 ---------------------------------------
 SCF time:   CPU 4.80s  wall 1.00s 
 SCF   energy in the final basis set =     -385.3938463529
 Total energy in the final basis set =     -385.3938463529
 
 Components of the MP2 correlation energy:
        aaaa  correlation energy =        -0.0486019655 au
        abab  correlation energy =        -0.3528605788 au
        bbbb  correlation energy =        -0.0486019655 au
        non-Brillouin singles    =        -0.0000000000 au

 Total  MP2   correlation energy =                    -0.45006451 au
        MP2         total energy =                  -385.84391086 au
  Entering Z-vector solver.
   1         0           1      0.000209    0.000209
   2         0           1      0.000063    0.000063
   3         0           1      0.000015    0.000015
   4         0           1      0.000006    0.000006
   5         0           1      0.000001    0.000001
   6         1           0      0.000000    0.000000    Roots Converged
 
 --------------------------------------------------------------
 
                    Orbital Energies (a.u.)
 --------------------------------------------------------------
 
 Alpha MOs
 -- Occupied --
-68.774 -15.531 -11.202  -6.119  -4.226  -4.226  -4.225  -1.130
 -0.942  -0.698  -0.650  -0.570  -0.557  -0.525  -0.473  -0.454
 -0.393
 -- Virtual --
  0.060   0.069   0.076   0.085   0.119   0.130   0.131   0.163
  0.190   0.192   0.206   0.215   0.230   0.250   0.265   0.282
  0.291   0.312   0.314   0.351   0.380   0.385   0.447   0.486
  0.521   0.539   0.582   0.598   0.651   0.725   0.735   0.765
  0.830   0.848   0.862   0.922   0.933   0.957   1.034   1.061
  1.103   1.125   1.135   1.191   1.309   1.341   1.370   1.452
  1.487   1.552   1.565   1.629   1.723   1.725   1.785   1.828
  1.841   1.899   1.904   1.939   1.977   2.034   2.044   2.115
  2.259   2.263   2.303   2.355   2.415   2.507   2.519   2.754
  2.772   2.790   2.801   2.838   2.862   2.879   2.905   2.966
  3.026   3.063   3.118   3.188   3.289   3.466   3.635   4.147
  4.162   4.365   4.773   5.211   6.270  12.325  12.361  12.389
 25.106  36.997 144.048
 --------------------------------------------------------------
 
          Ground-State Mulliken Net Atomic Charges

     Atom                 Charge (a.u.)
  ----------------------------------------
      1 C                    -0.801018
      2 Si                    1.024867
      3 H                    -0.199310
      4 H                    -0.188728
      5 N                    -0.837917
      6 H                     0.172063
      7 H                     0.154408
      8 H                     0.158198
      9 H                     0.266762
     10 H                     0.250675
  ----------------------------------------
  Sum of atomic charges =    -0.000000

 -----------------------------------------------------------------
                    Cartesian Multipole Moments
 -----------------------------------------------------------------
    Charge (ESU x 10^10)
                -0.0000
    Dipole Moment (Debye)
         X      -0.4322      Y      -0.4042      Z      -0.6197
       Tot       0.8569
    Quadrupole Moments (Debye-Ang)
        XX     -25.9119     XY       0.3447     YY     -29.6840
        XZ       0.7314     YZ       2.2708     ZZ     -30.1992
    Octopole Moments (Debye-Ang^2)
       XXX     -13.9752    XXY       0.8203    XYY      -1.4428
       YYY      -6.4954    XXZ       0.4170    XYZ      -2.5590
       YYZ      -2.4277    XZZ       0.0136    YZZ      -4.6329
       ZZZ       0.0834
    Hexadecapole Moments (Debye-Ang^3)
      XXXX    -237.0256   XXXY       8.8673   XXYY     -62.1670
      XYYY       4.7223   YYYY    -123.9727   XXXZ      -3.7904
      XXYZ       4.3231   XYYZ       4.0193   YYYZ       5.7671
      XXZZ     -56.0767   XYZZ      -0.4558   YYZZ     -33.6956
      XZZZ       1.4445   YZZZ       3.3395   ZZZZ     -69.5377
 -----------------------------------------------------------------
 DrvMan is completing analytic gradient of the MP2 energy
 MP2 relaxed dipole moment
            1
    1  -0.1700422
    2  -0.1590374
    3  -0.2438209
	Magnitude:	 0.337 au	 0.857 Debye
 MP2 energy read as -385.843911
 Full Analytical Gradient of MP2 Energy (in au.)
             1             2             3             4             5
    1    0.00000398    0.00000521   -0.00000173    0.00000109    0.00001061
    2   -0.00000037   -0.00000019    0.00000278    0.00000166    0.00003309
    3    0.00002078   -0.00000797   -0.00001291    0.00001050    0.00002940
             6             7             8             9            10
    1    0.00000528   -0.00001108    0.00000586   -0.00002174    0.00000251
    2   -0.00000207    0.00000767   -0.00001025   -0.00001854   -0.00001379
    3   -0.00000685   -0.00001113    0.00000120   -0.00001830   -0.00000472
 Gradient time:  CPU 0.11 s  wall 0.10 s
 Geometry Optimization Parameters
   NAtoms,    NIC,     NZ,  NCons,   NDum,   NFix, NCnnct, MaxDiis
       10      59       0       0       0       0       0       0

 Cartesian Hessian Update
 Hessian Updated using BFGS Update


** GEOMETRY OPTIMIZATION IN DELOCALIZED INTERNAL COORDINATES **
   Searching for a Minimum

   Optimization Cycle:   6

                       Coordinates (Angstroms)
     ATOM                X               Y               Z
      1  C         1.5272382305   -0.4584797119    0.0403237174
      2  Si       -0.0557226675    0.5347283591   -0.0247828762
      3  H        -0.0172983611    1.3789113674   -1.2467281535
      4  H        -0.1899793209    1.4397678566    1.1359634168
      5  N        -1.4049312352   -0.5581222237    0.0562688930
      6  H         1.5842234373   -1.0413461267    0.9631957937
      7  H         1.5854639474   -1.1531768638   -0.8035812896
      8  H         2.4032197593    0.1953745705   -0.0106577149
      9  H        -2.3195761153   -0.2033319382    0.2972696962
     10  H        -1.4952790696   -1.2966818919   -0.6274978619
   Point Group: c1    Number of degrees of freedom:    24


   Energy is   -385.843910863

 Hessian Updated using BFGS Update

 24 Hessian modes will be used to form the next step
  Hessian Eigenvalues:
     0.003189    0.007253    0.015174    0.044888    0.053556    0.055596
     0.056299    0.090684    0.125842    0.134876    0.159827    0.160012
     0.160067    0.161034    0.172494    0.194810    0.209901    0.221446
     0.313566    0.343505    0.344917    0.345723    0.452665    0.454871

 Minimum Search - Taking Simple RFO Step
 Searching for Lamda that Minimizes Along All modes
 Value Taken    Lamda =   0.00000000
 Step Taken.  Stepsize is  0.003369

                             Maximum     Tolerance    Cnvgd?
         Gradient           0.000044      0.000020      NO
         Displacement       0.002565      0.000120      NO
         Energy change     -0.000000      0.000000      NO


 New Cartesian Coordinates Obtained by Inverse Iteration

 Displacement from previous Coordinates is:  0.003160
 ----------------------------------------------------------------
             Standard Nuclear Orientation (Angstroms)
    I     Atom           X                Y                Z
 ----------------------------------------------------------------
    1      C       1.5273038566    -0.4584953922     0.0403123834
    2      Si     -0.0557528076     0.5345543472    -0.0248891911
    3      H      -0.0170918057     1.3791023302    -1.2465260246
    4      H      -0.1901508682     1.4394335054     1.1359346750
    5      N      -1.4050147816    -0.5581521191     0.0558617599
    6      H       1.5844651063    -1.0408258556     0.9635242386
    7      H       1.5856222099    -1.1537042059    -0.8031626395
    8      H       2.4031233228     0.1955410119    -0.0111089478
    9      H      -2.3193551459    -0.2033705179     0.2979244154
   10      H      -1.4957904816    -1.2964397066    -0.6280970485
 ----------------------------------------------------------------
 Molecular Point Group                 C1    NOp =  1
 Largest Abelian Subgroup              C1    NOp =  1
 Nuclear Repulsion Energy =   116.4761224647 hartrees
 There are       17 alpha and       17 beta electrons
 Applying Cartesian multipole field
    Component          Value
    ---------          -----
     (2,0,0)        1.00000E-11
     (0,2,0)        2.00000E-11
     (0,0,2)       -3.00000E-11
 Nucleus-field energy     =     0.0000000022 hartrees
 Requested basis set is 6-311+G(d,p)
 There are 53 shells and 116 basis functions
 A cutoff of  1.0D-11 yielded   1396 shell pairs
 There are      6799 function pairs (      7167 Cartesian)
 Smallest overlap matrix eigenvalue = 7.61E-04
 Guess MOs from SCF MO coefficient file
 Reading MOs from coefficient file
 Reading MOs from coefficient file

 -----------------------------------------------------------------------
  General SCF calculation program by
  Eric Jon Sundstrom, Paul Horn, Yuezhi Mao, Dmitri Zuev, Alec White,
  David Stuck, Shaama M.S., Shane Yost, Joonho Lee, David Small,
  Daniel Levine, Susi Lehtola, Hugh Burton, Evgeny Epifanovsky
 -----------------------------------------------------------------------
 Hartree-Fock
 using 4 threads for integral computing
 -------------------------------------------------------
 OpenMP Integral computing Module                
 Release: version 1.0, May 2013, Q-Chem Inc. Pittsburgh 
 -------------------------------------------------------
 A restricted SCF calculation will be
 performed using DIIS
 SCF converges when DIIS error is below 1.0e-08
 ---------------------------------------
  Cycle       Energy         DIIS error
 ---------------------------------------
    1    -385.3939334383      1.26e-05  
    2    -385.3938488215      2.77e-06  
    3    -385.3938488467      9.97e-07  
    4    -385.3938488497      4.72e-07  
    5    -385.3938488503      8.63e-08  
    6    -385.3938488504      2.20e-08  
    7    -385.3938488504      6.29e-09  Convergence criterion met
 ---------------------------------------
 SCF time:   CPU 4.16s  wall 1.00s 
 SCF   energy in the final basis set =     -385.3938488504
 Total energy in the final basis set =     -385.3938488504
 
 Components of the MP2 correlation energy:
        aaaa  correlation energy =        -0.0486017819 au
        abab  correlation energy =        -0.3528585173 au
        bbbb  correlation energy =        -0.0486017819 au
        non-Brillouin singles    =        -0.0000000000 au

 Total  MP2   correlation energy =                    -0.45006208 au
        MP2         total energy =                  -385.84391093 au
  Entering Z-vector solver.
   1         0           1      0.000209    0.000209
   2         0           1      0.000063    0.000063
   3         0           1      0.000015    0.000015
   4         0           1      0.000006    0.000006
   5         0           1      0.000001    0.000001
   6         1           0      0.000000    0.000000    Roots Converged
 
 --------------------------------------------------------------
 
                    Orbital Energies (a.u.)
 --------------------------------------------------------------
 
 Alpha MOs
 -- Occupied --
-68.774 -15.531 -11.202  -6.119  -4.226  -4.226  -4.225  -1.130
 -0.942  -0.698  -0.650  -0.570  -0.557  -0.525  -0.473  -0.454
 -0.393
 -- Virtual --
  0.060   0.069   0.076   0.085   0.119   0.130   0.131   0.163
  0.190   0.192   0.205   0.215   0.230   0.250   0.265   0.282
  0.291   0.312   0.314   0.351   0.380   0.385   0.447   0.486
  0.521   0.539   0.582   0.598   0.651   0.725   0.735   0.765
  0.830   0.848   0.862   0.922   0.933   0.957   1.034   1.061
  1.103   1.125   1.135   1.191   1.309   1.341   1.370   1.452
  1.487   1.552   1.565   1.629   1.723   1.725   1.785   1.828
  1.841   1.900   1.904   1.939   1.977   2.034   2.044   2.115
  2.259   2.264   2.303   2.355   2.415   2.507   2.519   2.754
  2.772   2.790   2.801   2.838   2.862   2.879   2.905   2.966
  3.027   3.063   3.118   3.188   3.289   3.466   3.635   4.147
  4.162   4.365   4.773   5.211   6.270  12.325  12.361  12.389
 25.106  36.997 144.048
 --------------------------------------------------------------
 
          Ground-State Mulliken Net Atomic Charges

     Atom                 Charge (a.u.)
  ----------------------------------------
      1 C                    -0.800944
      2 Si                    1.024829
      3 H                    -0.199306
      4 H                    -0.188742
      5 N                    -0.837974
      6 H                     0.172050
      7 H                     0.154406
      8 H                     0.158176
      9 H                     0.266774
     10 H                     0.250730
  ----------------------------------------
  Sum of atomic charges =    -0.000000

 -----------------------------------------------------------------
                    Cartesian Multipole Moments
 -----------------------------------------------------------------
    Charge (ESU x 10^10)
                -0.0000
    Dipole Moment (Debye)
         X      -0.4330      Y      -0.4047      Z      -0.6187
       Tot       0.8567
    Quadrupole Moments (Debye-Ang)
        XX     -25.9123     XY       0.3458     YY     -29.6855
        XZ       0.7284     YZ       2.2712     ZZ     -30.1958
    Octopole Moments (Debye-Ang^2)
       XXX     -13.9750    XXY       0.8185    XYY      -1.4419
       YYY      -6.4874    XXZ       0.4258    XYZ      -2.5587
       YYZ      -2.4257    XZZ       0.0081    YZZ      -4.6336
       ZZZ       0.0936
    Hexadecapole Moments (Debye-Ang^3)
      XXXX    -237.0698   XXXY       8.8748   XXYY     -62.1653
      XYYY       4.7188   YYYY    -123.9622   XXXZ      -3.8193
      XXYZ       4.3239   XYYZ       4.0165   YYYZ       5.7706
      XXZZ     -56.0695   XYZZ      -0.4510   YYZZ     -33.6896
      XZZZ       1.4359   YZZZ       3.3371   ZZZZ     -69.5303
 -----------------------------------------------------------------
 DrvMan is completing analytic gradient of the MP2 energy
 MP2 relaxed dipole moment
            1
    1  -0.1703367
    2  -0.1592259
    3  -0.2434014
	Magnitude:	 0.337 au	 0.857 Debye
 MP2 energy read as -385.843911
 Full Analytical Gradient of MP2 Energy (in au.)
             1             2             3             4             5
    1    0.00000608   -0.00001893    0.00000362    0.00000218   -0.00000946
    2    0.00000357   -0.00001000    0.00000468    0.00000217    0.00002023
    3    0.00000533   -0.00000343    0.00000769   -0.00000485    0.00000582
             6             7             8             9            10
    1   -0.00000072   -0.00000351    0.00000022    0.00000189    0.00001861
    2   -0.00000366   -0.00000010   -0.00000584   -0.00000463   -0.00000642
    3   -0.00000197   -0.00000710   -0.00000068   -0.00000735    0.00000652
 Gradient time:  CPU 0.12 s  wall 0.12 s
 Geometry Optimization Parameters
   NAtoms,    NIC,     NZ,  NCons,   NDum,   NFix, NCnnct, MaxDiis
       10      59       0       0       0       0       0       0

 Cartesian Hessian Update
 Hessian Updated using BFGS Update


** GEOMETRY OPTIMIZATION IN DELOCALIZED INTERNAL COORDINATES **
   Searching for a Minimum

   Optimization Cycle:   7

                       Coordinates (Angstroms)
     ATOM                X               Y               Z
      1  C         1.5273038566   -0.4584953922    0.0403123834
      2  Si       -0.0557528076    0.5345543472   -0.0248891911
      3  H        -0.0170918057    1.3791023302   -1.2465260246
      4  H        -0.1901508682    1.4394335054    1.1359346750
      5  N        -1.4050147816   -0.5581521191    0.0558617599
      6  H         1.5844651063   -1.0408258556    0.9635242386
      7  H         1.5856222099   -1.1537042059   -0.8031626395
      8  H         2.4031233228    0.1955410119   -0.0111089478
      9  H        -2.3193551459   -0.2033705179    0.2979244154
     10  H        -1.4957904816   -1.2964397066   -0.6280970485
   Point Group: c1    Number of degrees of freedom:    24


   Energy is   -385.843910931

 Hessian Updated using BFGS Update

 24 Hessian modes will be used to form the next step
  Hessian Eigenvalues:
     0.002327    0.006853    0.011063    0.044900    0.053981    0.055570
     0.058878    0.090735    0.121934    0.134332    0.157575    0.159991
     0.160104    0.160170    0.172573    0.196861    0.208988    0.222198
     0.324643    0.343512    0.344740    0.347831    0.453484    0.461692

 Minimum Search - Taking Simple RFO Step
 Searching for Lamda that Minimizes Along All modes
 Value Taken    Lamda =   0.00000000
 Step Taken.  Stepsize is  0.004601

                             Maximum     Tolerance    Cnvgd?
         Gradient           0.000035      0.000020      NO
         Displacement       0.003691      0.000120      NO
         Energy change     -0.000000      0.000000     YES


 New Cartesian Coordinates Obtained by Inverse Iteration

 Displacement from previous Coordinates is:  0.004790
 ----------------------------------------------------------------
             Standard Nuclear Orientation (Angstroms)
    I     Atom           X                Y                Z
 ----------------------------------------------------------------
    1      C       1.5274686923    -0.4584957881     0.0403437448
    2      Si     -0.0557477771     0.5342643192    -0.0250323956
    3      H      -0.0169959807     1.3791350278    -1.2464162775
    4      H      -0.1903024447     1.4388811398     1.1359626968
    5      N      -1.4051333828    -0.5582788767     0.0554174532
    6      H       1.5849113819    -1.0400756172     0.9640210604
    7      H       1.5859489245    -1.1543746834    -0.8025530433
    8      H       2.4030469422     0.1958282168    -0.0116503457
    9      H      -2.3190566609    -0.2033862749     0.2988438159
   10      H      -1.4967810900    -1.2958540658    -0.6291630881
 ----------------------------------------------------------------
 Molecular Point Group                 C1    NOp =  1
 Largest Abelian Subgroup              C1    NOp =  1
 Nuclear Repulsion Energy =   116.4756032326 hartrees
 There are       17 alpha and       17 beta electrons
 Applying Cartesian multipole field
    Component          Value
    ---------          -----
     (2,0,0)        1.00000E-11
     (0,2,0)        2.00000E-11
     (0,0,2)       -3.00000E-11
 Nucleus-field energy     =     0.0000000022 hartrees
 Requested basis set is 6-311+G(d,p)
 There are 53 shells and 116 basis functions
 A cutoff of  1.0D-11 yielded   1396 shell pairs
 There are      6799 function pairs (      7167 Cartesian)
 Smallest overlap matrix eigenvalue = 7.61E-04
 Guess MOs from SCF MO coefficient file
 Reading MOs from coefficient file
 Reading MOs from coefficient file

 -----------------------------------------------------------------------
  General SCF calculation program by
  Eric Jon Sundstrom, Paul Horn, Yuezhi Mao, Dmitri Zuev, Alec White,
  David Stuck, Shaama M.S., Shane Yost, Joonho Lee, David Small,
  Daniel Levine, Susi Lehtola, Hugh Burton, Evgeny Epifanovsky
 -----------------------------------------------------------------------
[...]

     9 Order 1, Length 30
    Atom      X          Y          Z
     1   -2.401681574626192e-03  -3.581697838475152e-03   1.920152406225539e-06
     2   -1.104345251314353e-02   1.109494462858912e-02   2.567780060679641e-03
     3    8.756607772683824e-04   9.585104061597018e-05  -2.171321304232470e-04
     4    1.653166868437848e-03   1.358507513998338e-04  -2.066227704342588e-04
     5   -3.914253171600260e-01   1.297621682047380e-01   1.059980049130414e-01
     6    2.396838131693669e-04  -5.416893667691816e-05  -2.405784501753720e-05
     7    3.288385126348894e-04  -1.076143682193561e-04   7.376648695869250e-05
     8   -8.480052191269169e-04   9.922146098208227e-04  -6.892189906391635e-05
     9    3.980785745988069e-01  -1.332775866006540e-01  -1.024625194183222e-01
    10    4.543348630035110e-03  -5.061005360982874e-03  -5.661278246773459e-03

Order 1, Length 30
    Atom      X          Y          Z
     1   -1.465674566167524e-03  -1.631439947177184e-03  -4.361088493094825e-04
     2   -1.502954469465264e-02   5.280211249834135e-03   5.446662862064218e-03
     3   -2.300639077723344e-04  -1.414273647332340e-03  -5.245406972689050e-05
     4    1.412554354503603e-03   2.053067627910593e-06   1.723603353830833e-05
     5    1.215288650966085e-01  -8.856652196098069e-02  -6.027769741321577e-02
     6   -1.343310872564239e-04  -1.677873308036334e-05  -1.116609895991859e-04
     7    9.412413941012462e-05  -1.426676883229963e-04   1.546116461042736e-04
     8   -5.695719536063873e-04   6.630489371905675e-04  -1.649611802360747e-04
     9   -1.332775866006540e-01   9.399796423624017e-02   5.982422473780928e-02
    10    2.766942269094868e-02  -8.173908255131139e-03  -4.401056587106365e-03

Order 1, Length 30
    Atom      X          Y          Z
     1   -1.656637280562768e-03  -1.537452392304574e-03   6.381728715887958e-04
     2    2.910873578671940e-03   3.145906466701313e-03  -6.948269761681399e-04
     3   -4.408888542640744e-05   5.549749019854895e-04  -1.018328694051770e-04
     4    4.412646236842444e-04   2.450211004992738e-04  -7.848250965775780e-04
     5    7.629131273747822e-02  -5.442796469887369e-02  -4.106548017573947e-02
     6    4.322943810380384e-04  -9.425461909793112e-05   4.811476411294250e-05
     7   -7.038345557162533e-05   2.148076785743452e-04   5.551976324287418e-05
     8   -8.409004383916781e-04   1.735202049509328e-04   3.411490446934233e-04
     9   -1.024625194183222e-01   5.982422473780928e-02   4.769944130213023e-02
    10    2.500266842273844e-02  -8.098204492041437e-03  -6.136401693707434e-03


    10 Order 1, Length 30
    Atom      X          Y          Z
     1    9.141681135711746e-04   1.250573958266777e-03   4.923311961497605e-04
     2    2.573559676996498e-03  -1.152492160663056e-02  -1.366505080778044e-02
     3   -1.963420213830287e-04   4.962853201047784e-04   5.012263483797005e-04
     4   -2.725757215813228e-03  -2.768786353270240e-03   6.563411907227961e-05
     5   -5.983111562802047e-02  -4.771422249341786e-02  -3.076953845005403e-02
     6   -1.039286917640231e-04  -4.939301312131257e-05  -2.727402200809529e-05
     7   -9.546401041712297e-04   3.997325481900145e-04   3.043517455322568e-04
     8    3.833432104203889e-04   1.062488259819611e-04   2.905761074497415e-04
     9    4.543348630035110e-03   2.766942269094868e-02   2.500266842273844e-02
    10    5.539692036320450e-02   3.213621429599636e-02   1.780654270822275e-02

Order 1, Length 30
    Atom      X          Y          Z
     1    2.649281754121258e-04   8.715422523108777e-05   7.428680113941616e-04
     2   -1.264412068069221e-03  -9.250425439986412e-03  -1.065560127833988e-02
     3    7.177126499757582e-04   8.864706572714808e-04   7.395606291825793e-04
     4   -1.626251930153973e-03  -1.359086272539056e-04   2.234359669235829e-04
     5   -2.525443945313214e-02  -2.509359015222375e-01  -2.155937030532971e-01
     6    2.481603081728738e-04   6.802324884619184e-05   1.486431785384285e-04
     7   -2.513756181533361e-04   2.543542568790869e-04  -1.747571143069322e-04
     8    9.381382862428889e-05  -1.081509648360921e-04   1.488601054007232e-04
     9   -5.061005360982874e-03  -8.173908255131139e-03  -8.098204492041437e-03
    10    3.213621429599636e-02   2.673103241342528e-01   2.325187374831793e-01

Order 1, Length 30
    Atom      X          Y          Z
     1   -4.146138464784426e-04   5.037372721568989e-04  -1.144021650018647e-04
     2    4.349898136199997e-03   6.166325652583831e-03   6.479027959587401e-04
     3    5.300597420128366e-04   8.965904104480308e-05  -5.439605213792612e-04
     4    1.013226905699025e-04  -5.020755073500624e-04   1.146473125753430e-03
     5   -1.653612270291878e-02  -2.343002688759540e-01  -2.112661009153200e-01
     6   -3.247201081801114e-04  -8.543064632039095e-05  -1.541899644420787e-04
     7    1.933034831597094e-05  -1.379931265020263e-04   2.633953934485611e-06
     8    1.303816990099109e-04   1.498764057085730e-04  -1.126924401887658e-04
     9   -5.661278246773459e-03  -4.401056587106365e-03  -6.136401693707434e-03
    10    1.780654270822275e-02   2.325187374831793e-01   2.165294867693055e-01




 # Finishing finite difference calculation for IDERIV #
 ######################################################
 ######################################################
 Requested basis set is 6-311+G(d,p)
 There are 53 shells and 116 basis functions
 **********************************************************************
 **                                                                  **
 **                       VIBRATIONAL ANALYSIS                       **
 **                       --------------------                       **
 **                                                                  **
 **        VIBRATIONAL FREQUENCIES (CM**-1) AND NORMAL MODES         **
 **     FORCE CONSTANTS (mDYN/ANGSTROM) AND REDUCED MASSES (AMU)     **
 **                  INFRARED INTENSITIES (KM/MOL)                   **
 **                                                                  **
 **********************************************************************
 

 Mode:                 1                      2                      3
 Frequency:       151.48                 158.34                 266.94
 Force Cnst:      0.0157                 0.0167                 0.0778
 Red. Mass:       1.1649                 1.1312                 1.8526
 IR Active:          YES                    YES                    YES
 IR Intens:       11.647                  1.483                 10.706
 Raman Active:       YES                    YES                    YES
               X      Y      Z        X      Y      Z        X      Y      Z
 C          0.056  0.043  0.023    0.036  0.027  0.017   -0.116 -0.066  0.028
 Si         0.004 -0.041 -0.001    0.002 -0.030 -0.034   -0.005  0.093 -0.029
 H          0.017 -0.036  0.004    0.000 -0.087 -0.073   -0.054  0.075 -0.038
 H         -0.045 -0.085  0.029    0.007  0.008 -0.064   -0.092  0.064 -0.017
 N         -0.045  0.017 -0.041   -0.034  0.019  0.040    0.147 -0.089  0.004
 H          0.205  0.254  0.144   -0.203 -0.335 -0.191   -0.385 -0.130  0.008
 H         -0.015 -0.149  0.180    0.355  0.371 -0.250   -0.243 -0.067  0.018
 H          0.011  0.079 -0.240    0.001  0.124  0.550    0.075 -0.316  0.137
 H          0.105 -0.009  0.545    0.041  0.056  0.266    0.195 -0.356  0.558
 H         -0.420  0.351 -0.350   -0.223  0.121 -0.044   -0.013  0.165 -0.249
 TransDip  -0.062  0.062  0.066   -0.025  0.019  0.023   -0.057  0.063  0.061

 Mode:                 4                      5                      6
 Frequency:       439.04                 511.36                 666.56
 Force Cnst:      0.1382                 0.1663                 0.2796
 Red. Mass:       1.2165                 1.0797                 1.0679
 IR Active:          YES                    YES                    YES
 IR Intens:      200.417                 22.254                 20.568
 Raman Active:       YES                    YES                    YES
               X      Y      Z        X      Y      Z        X      Y      Z
 C          0.009 -0.008  0.003   -0.002 -0.003 -0.013   -0.033 -0.030 -0.017
 Si        -0.006 -0.009  0.002    0.000 -0.001 -0.047   -0.006 -0.000  0.025
 H          0.104  0.081  0.071   -0.271  0.419  0.239   -0.139 -0.248 -0.148
 H         -0.033 -0.069  0.050    0.314 -0.372  0.288    0.579  0.212 -0.081
 N         -0.011  0.084 -0.092   -0.001 -0.006  0.028   -0.011  0.030 -0.018
 H          0.041 -0.008  0.001   -0.281  0.237  0.160    0.050  0.081  0.047
 H          0.036  0.002 -0.004    0.296 -0.213  0.193    0.244 -0.056  0.032
 H         -0.016  0.027 -0.001   -0.006  0.021  0.170   -0.193  0.201  0.047
 H          0.001 -0.358  0.521    0.007  0.069 -0.038   -0.149 -0.398  0.056
 H          0.064 -0.493  0.550   -0.034 -0.027  0.054    0.319  0.154 -0.203
 TransDip  -0.053 -0.322  0.315    0.006 -0.007 -0.151   -0.085  0.014  0.117

 Mode:                 7                      8                      9
 Frequency:       698.89                 761.10                 833.99
 Force Cnst:      0.7536                 0.4739                 1.3464
 Red. Mass:       2.6188                 1.3884                 3.2854
 IR Active:          YES                    YES                    YES
 IR Intens:        5.281                 53.291                 28.543
 Raman Active:       YES                    YES                    YES
               X      Y      Z        X      Y      Z        X      Y      Z
 C          0.290 -0.110 -0.006    0.016 -0.121  0.023    0.035 -0.084 -0.027
 Si        -0.076  0.094  0.009   -0.040  0.052 -0.040   -0.149 -0.076  0.023
 H         -0.418 -0.026 -0.074    0.571  0.282  0.136   -0.435 -0.122 -0.029
 H         -0.067  0.169 -0.055   -0.175 -0.096  0.062   -0.407  0.006 -0.064
 N         -0.105 -0.031 -0.008    0.002 -0.026  0.059    0.264  0.196 -0.023
 H          0.059 -0.151 -0.003    0.433 -0.086  0.011    0.092  0.019  0.040
 H          0.152 -0.210  0.059    0.327 -0.017 -0.043    0.308 -0.143  0.042
 H          0.541 -0.440  0.070   -0.278  0.289 -0.067   -0.065  0.066  0.055
 H         -0.170 -0.197 -0.009   -0.050 -0.110  0.006    0.339  0.368 -0.031
 H          0.038 -0.020 -0.043    0.070  0.094 -0.091    0.213  0.208 -0.010
 TransDip   0.006  0.068  0.028   -0.158  0.097 -0.142   -0.139 -0.091  0.040

 Mode:                10                     11                     12
 Frequency:       899.63                 910.66                 982.82
 Force Cnst:      0.6251                 0.6763                 0.7311
 Red. Mass:       1.3109                 1.3842                 1.2847
 IR Active:          YES                    YES                    YES
 IR Intens:       44.929                 60.483                311.609
 Raman Active:       YES                    YES                    YES
               X      Y      Z        X      Y      Z        X      Y      Z
 C          0.010  0.001  0.137    0.036  0.080  0.001    0.034  0.036 -0.024
 Si        -0.027 -0.005 -0.048   -0.023 -0.057 -0.032   -0.082  0.001  0.018
 H         -0.314  0.124  0.044    0.372  0.045  0.048    0.624 -0.085 -0.025
 H          0.460 -0.190  0.160   -0.111 -0.265  0.126    0.588  0.101  0.008
 N          0.029  0.014 -0.003   -0.009  0.088  0.068    0.048 -0.032 -0.025
 H          0.417 -0.331 -0.109   -0.209 -0.015 -0.038   -0.127  0.020 -0.013
 H         -0.374  0.292 -0.152   -0.233  0.024  0.020   -0.022 -0.067  0.054
 H          0.011 -0.029 -0.198    0.256 -0.233 -0.008    0.177 -0.154  0.044
 H          0.040  0.039  0.002   -0.213 -0.383 -0.042    0.166  0.262  0.004
 H          0.001  0.013  0.005    0.474  0.246 -0.184   -0.199 -0.088  0.078
 TransDip  -0.099  0.009 -0.190   -0.122 -0.170 -0.136   -0.560  0.002  0.075

 Mode:                13                     14                     15
 Frequency:      1030.01                1313.76                1470.65
 Force Cnst:      0.6674                 1.2848                 1.3374
 Red. Mass:       1.0677                 1.2634                 1.0495
 IR Active:          YES                    YES                    YES
 IR Intens:      144.319                 35.115                  4.528
 Raman Active:       YES                    YES                    YES
               X      Y      Z        X      Y      Z        X      Y      Z
 C          0.008  0.012  0.007   -0.129  0.079 -0.005   -0.007 -0.015 -0.059
 Si        -0.001 -0.046 -0.001    0.011 -0.004 -0.000   -0.001 -0.002 -0.005
 H         -0.035  0.567  0.398   -0.021  0.006  0.016   -0.000  0.015  0.009
 H          0.064  0.549 -0.445   -0.022  0.002 -0.016    0.008 -0.010  0.004
 N         -0.003  0.003  0.003   -0.005 -0.001  0.000    0.002  0.002  0.002
 H         -0.027 -0.027 -0.015    0.505 -0.185 -0.191    0.460  0.282  0.107
 H         -0.064  0.009  0.004    0.502 -0.153  0.210   -0.415 -0.076 -0.013
 H          0.023 -0.018 -0.009    0.314 -0.480  0.038    0.039 -0.001  0.717
 H         -0.010 -0.035  0.025   -0.002 -0.001  0.008   -0.009 -0.020 -0.006
 H          0.034  0.041 -0.044    0.015  0.000 -0.004   -0.010  0.007 -0.002
 TransDip  -0.022 -0.384  0.005    0.169 -0.086  0.001    0.001  0.013  0.067

 Mode:                16                     17                     18
 Frequency:      1472.50                1597.74                2253.17
 Force Cnst:      1.3400                 1.6686                 3.1172
 Red. Mass:       1.0489                 1.1094                 1.0422
 IR Active:          YES                    YES                    YES
 IR Intens:        3.752                 52.957                209.046
 Raman Active:       YES                    YES                    YES
               X      Y      Z        X      Y      Z        X      Y      Z
 C         -0.031 -0.050  0.015    0.001 -0.001 -0.001    0.000 -0.000 -0.001
 Si        -0.003 -0.005  0.001    0.003  0.004 -0.003    0.001  0.017 -0.031
 H          0.020  0.010  0.010    0.002  0.004 -0.006   -0.018 -0.557  0.823
 H          0.012  0.013 -0.010   -0.004 -0.005  0.016   -0.012  0.072  0.069
 N         -0.003 -0.001 -0.000   -0.075 -0.043 -0.015    0.001  0.000 -0.000
 H          0.040  0.502  0.338    0.006 -0.005 -0.004   -0.007  0.005 -0.002
 H          0.207  0.506 -0.428   -0.024 -0.012  0.006   -0.001 -0.001 -0.004
 H          0.178 -0.314 -0.119   -0.014  0.019  0.019    0.000  0.005 -0.002
 H          0.006  0.011  0.011    0.274  0.523  0.379    0.002  0.003 -0.002
 H          0.019  0.003 -0.007    0.697 -0.039 -0.099    0.002  0.002 -0.002
 TransDip   0.038  0.047 -0.015    0.199  0.104  0.062    0.020  0.257 -0.385

 Mode:                19                     20                     21
 Frequency:      2305.62                3074.65                3164.78
 Force Cnst:      3.2514                 5.7693                 6.4899
 Red. Mass:       1.0381                 1.0358                 1.0998
 IR Active:          YES                    YES                    YES
 IR Intens:      142.720                  4.384                  9.432
 Raman Active:       YES                    YES                    YES
               X      Y      Z        X      Y      Z        X      Y      Z
 C         -0.000  0.000 -0.000    0.043 -0.026 -0.004   -0.040 -0.065 -0.051
 Si         0.003 -0.023 -0.024   -0.001  0.001 -0.000   -0.000 -0.001 -0.000
 H          0.005  0.049 -0.098    0.001 -0.002  0.001    0.001  0.001  0.001
 H         -0.087  0.609  0.780    0.001 -0.001  0.001   -0.001  0.003  0.003
 N          0.000 -0.000  0.000    0.000  0.000 -0.000    0.000  0.000  0.000
 H          0.002  0.000 -0.003   -0.016  0.270 -0.454   -0.002 -0.078  0.093
 H          0.005 -0.004 -0.001   -0.017  0.388  0.471   -0.047  0.469  0.565
 H         -0.000 -0.004 -0.000   -0.461 -0.363  0.031    0.531  0.389 -0.048
 H         -0.002 -0.005 -0.005    0.001 -0.000  0.001   -0.001  0.001  0.000
 H         -0.008 -0.002 -0.002    0.001  0.001  0.000    0.002 -0.000 -0.000
 TransDip   0.037 -0.286 -0.251    0.058 -0.031 -0.013   -0.046 -0.069 -0.053

 Mode:                22                     23                     24
 Frequency:      3178.12                3615.79                3713.92
 Force Cnst:      6.5528                 8.0936                 8.8938
 Red. Mass:       1.1011                 1.0507                 1.0944
 IR Active:          YES                    YES                    YES
 IR Intens:        6.786                 17.912                 24.851
 Raman Active:       YES                    YES                    YES
               X      Y      Z        X      Y      Z        X      Y      Z
 C          0.027  0.043 -0.077   -0.000 -0.000  0.000    0.000 -0.000 -0.000
 Si         0.000  0.000 -0.001    0.001  0.001 -0.000   -0.000  0.000  0.000
 H          0.000 -0.002  0.004    0.003  0.002 -0.001   -0.000  0.001 -0.000
 H         -0.001  0.000  0.002   -0.000  0.000  0.002    0.001 -0.001 -0.002
 N         -0.000 -0.000  0.000   -0.049 -0.022 -0.020   -0.042  0.054  0.045
 H          0.053 -0.440  0.712   -0.000  0.000 -0.000    0.000  0.000 -0.000
 H         -0.009  0.190  0.200    0.000 -0.000 -0.001    0.000  0.000  0.000
 H         -0.370 -0.273  0.010    0.001  0.002 -0.000    0.000  0.001 -0.000
 H          0.001 -0.001  0.000    0.615 -0.250 -0.190    0.654 -0.246 -0.177
 H          0.000  0.001  0.000    0.049  0.538  0.478   -0.073 -0.507 -0.460
 TransDip   0.026  0.039 -0.069    0.118  0.066  0.013    0.083 -0.104 -0.089

 STANDARD THERMODYNAMIC QUANTITIES AT   298.15 K  AND     1.00 ATM

   This Molecule has  0 Imaginary Frequencies
   Zero point vibrational energy:       50.709 kcal/mol

   Atom    1 Element C  Has Mass   12.00000
   Atom    2 Element Si Has Mass   27.97693
   Atom    3 Element H  Has Mass    1.00783
   Atom    4 Element H  Has Mass    1.00783
   Atom    5 Element N  Has Mass   14.00307
   Atom    6 Element H  Has Mass    1.00783
   Atom    7 Element H  Has Mass    1.00783
   Atom    8 Element H  Has Mass    1.00783
   Atom    9 Element H  Has Mass    1.00783
   Atom   10 Element H  Has Mass    1.00783
   Molecular Mass:    61.034810 amu
   Principal axes and moments of inertia in amu*Bohr^2:
                             1           2           3
    Eigenvalues --      100.19790   283.41508   347.79803
          X               0.99984    -0.01771     0.00301
          Y               0.01761     0.99935     0.03149
          Z              -0.00356    -0.03143     0.99950
   Rotational Symmetry Number is   1
   The Molecule is an Asymmetric Top
   Translational Enthalpy:        0.889 kcal/mol
   Rotational Enthalpy:           0.889 kcal/mol
   Vibrational Enthalpy:         52.482 kcal/mol
   gas constant (RT):             0.592 kcal/mol
   Translational Entropy:        38.246  cal/mol.K
   Rotational Entropy:           23.805  cal/mol.K
   Vibrational Entropy:           9.895  cal/mol.K

   Total Enthalpy:               54.852 kcal/mol
   Total Entropy:                71.946  cal/mol.K
Archival summary:
1\1\mm2.localdomain\FREQ\MP2\6-311+G**\i1117\xuedong\ThuJun1811:45:262020ThuJun1811:45:262020\0\\#,FREQ,MP2,6-311+G**,\\0,1\Si\H,1,1.47797\H,1,1.48564,2,107.484\N,1,1.73813,2,106.103,3,-122.983,0\H,4,1.01019,1,119.495,2,41.5606,0\H,4,1.01048,1,119.885,2,-177.88,0\C,1,1.86985,2,111.982,3,118.429,0\H,7,1.09303,1,110.884,2,57.3006,0\H,7,1.09431,1,110.99,2,-63.2898,0\H,7,1.09458,1,110.858,2,177.304,0\\HF=-385.393834\MP2=-385.843911\\@

 Total job time:  432.07s(wall), 1189.46s(cpu) 
 Thu Jun 18 11:45:26 2020

        *************************************************************
        *                                                           *
        *  Thank you very much for using Q-Chem.  Have a nice day.  *
        *                                                           *
        *************************************************************


