
Running Job 1 of 2 9.freq.qcinp
qchem 9.freq.qcinp_40619.0 /scratch/xuedong/qchem40619/ 1
/home/qwang/software/qchem5.1/exe/qcprog.exe_s 9.freq.qcinp_40619.0 /scratch/xuedong/qchem40619/
Check license passed

                  Welcome to Q-Chem
     A Quantum Leap Into The Future Of Chemistry


 Q-Chem 5.1, Q-Chem, Inc., Pleasanton, CA (2018)

 Yihan Shao,  Zhengting Gan,  E. Epifanovsky,  A. T. B. Gilbert,  M. Wormit,  
 J. Kussmann,  A. W. Lange,  A. Behn,  Jia Deng,  Xintian Feng,  D. Ghosh,  
 M. Goldey,  P. R. Horn,  L. D. Jacobson,  I. Kaliman,  T. Kus,  A. Landau,  
 Jie Liu,  E. I. Proynov,  R. M. Richard,  R. P. Steele,  E. J. Sundstrom,  
 H. L. Woodcock III,  P. M. Zimmerman,  D. Zuev,  B. Albrecht,  E. Alguire,  
 S. A. Baeppler,  D. Barton,  Z. Benda,  Y. A. Bernard,  E. J. Berquist,  
 K. B. Bravaya,  H. Burton,  D. Casanova,  Chun-Min Chang,  Yunqing Chen,  
 A. Chien,  K. D. Closser,  M. P. Coons,  S. Coriani,  S. Dasgupta,  
 A. L. Dempwolff,  M. Diedenhofen,  Hainam Do,  R. G. Edgar,  Po-Tung Fang,  
 S. Faraji,  S. Fatehi,  Qingguo Feng,  K. D. Fenk,  J. Fosso-Tande,  
 Qinghui Ge,  A. Ghysels,  G. Gidofalvi,  J. Gomes,  J. Gonthier,  A. Gunina,  
 D. Hait,  M. W. D. Hanson-Heine,  P. H. P. Harbach,  A. W. Hauser,  
 J. E. Herr,  E. G. Hohenstein,  Z. C. Holden,  Kerwin Hui,  B. C. Huynh,  
 T.-C. Jagau,  Hyunjun Ji,  B. Kaduk,  K. Khistyaev,  Jaehoon Kim,  
 P. Klunzinger,  K. Koh,  D. Kosenkov,  L. Koulias,  T. Kowalczyk,  
 C. M. Krauter,  A. Kunitsa,  Ka Un Lao,  A. Laurent,  K. V. Lawler,  
 Joonho Lee,  D. Lefrancois,  S. Lehtola,  D. S. Levine,  Yi-Pei Li,  
 You-Sheng Lin,  Fenglai Liu,  E. Livshits,  A. Luenser,  P. Manohar,  
 E. Mansoor,  S. F. Manzer,  Shan-Ping Mao,  Yuezhi Mao,  N. Mardirossian,  
 A. V. Marenich,  T. Markovich,  L. A. Martinez-Martinez,  S. A. Maurer,  
 N. J. Mayhall,  S. C. McKenzie,  J.-M. Mewes,  A. F. Morrison,  
 J. W. Mullinax,  K. Nanda,  T. S. Nguyen-Beck,  R. Olivares-Amaya,  
 J. A. Parkhill,  T. M. Perrine,  F. Plasser,  P. Pokhilko,  S. Prager,  
 A. Prociuk,  E. Ramos,  D. R. Rehn,  F. Rob,  M. Schneider,  N. Sergueev,  
 S. M. Sharada,  S. Sharma,  D. W. Small,  T. Stauch,  T. Stein,  
 Yu-Chuan Su,  A. J. W. Thom,  A. Tkatchenko,  T. Tsuchimochi,  N. M. Tubman,  
 L. Vogt,  M. L. Vidal,  O. Vydrov,  M. A. Watson,  J. Wenzel,  
 M. de Wergifosse,  T. A. Wesolowski,  A. White,  J. Witte,  A. Yamada,  
 Jun Yang,  K. Yao,  S. Yeganeh,  S. R. Yost,  Zhi-Qiang You,  A. Zech,  
 Igor Ying Zhang,  Xing Zhang,  Yan Zhao,  Ying Zhu,  B. R. Brooks,  
 G. K. L. Chan,  C. J. Cramer,  M. S. Gordon,  W. J. Hehre,  A. Klamt,  
 M. W. Schmidt,  C. D. Sherrill,  D. G. Truhlar,  A. Aspuru-Guzik,  R. Baer,  
 A. T. Bell,  N. A. Besley,  Jeng-Da Chai,  R. A. DiStasio Jr.,  A. Dreuw,  
 B. D. Dunietz,  T. R. Furlani,  Chao-Ping Hsu,  Yousung Jung,  Jing Kong,  
 D. S. Lambrecht,  WanZhen Liang,  C. Ochsenfeld,  V. A. Rassolov,  
 L. V. Slipchenko,  J. E. Subotnik,  T. Van Voorhis,  J. M. Herbert,  
 A. I. Krylov,  P. M. W. Gill,  M. Head-Gordon

 Contributors to earlier versions of Q-Chem not listed above: 
 R. D. Adamson,  B. Austin,  J. Baker,  G. J. O. Beran,  K. Brandhorst,  
 S. T. Brown,  E. F. C. Byrd,  A. K. Chakraborty,  C.-L. Cheng,  
 Siu Hung Chien,  D. M. Chipman,  D. L. Crittenden,  H. Dachsel,  
 R. J. Doerksen,  A. D. Dutoi,  L. Fusti-Molnar,  W. A. Goddard III,  
 A. Golubeva-Zadorozhnaya,  S. R. Gwaltney,  G. Hawkins,  A. Heyden,  
 S. Hirata,  G. Kedziora,  F. J. Keil,  C. Kelley,  Jihan Kim,  R. A. King,  
 R. Z. Khaliullin,  P. P. Korambath,  W. Kurlancheek,  A. M. Lee,  M. S. Lee,  
 S. V. Levchenko,  Ching Yeh Lin,  D. Liotard,  R. C. Lochan,  I. Lotan,  
 P. E. Maslen,  N. Nair,  D. P. O'Neill,  D. Neuhauser,  E. Neuscamman,  
 C. M. Oana,  R. Olson,  B. Peters,  R. Peverati,  P. A. Pieniazek,  
 Y. M. Rhee,  J. Ritchie,  M. A. Rohrdanz,  E. Rosta,  N. J. Russ,  
 H. F. Schaefer III,  N. E. Schultz,  N. Shenvi,  A. C. Simmonett,  A. Sodt,  
 D. Stuck,  K. S. Thanthiriwatte,  V. Vanovschi,  Tao Wang,  A. Warshel,  
 C. F. Williams,  Q. Wu,  X. Xu,  W. Zhang

 Please cite Q-Chem as follows:
 Y. Shao et al., Mol. Phys. 113, 184-215 (2015)
 DOI: 10.1080/00268976.2014.952696

 Q-Chem 5.1.0 for Intel X86 EM64T Linux

 Parts of Q-Chem use Armadillo 8.300.2 (Tropical Shenanigans).
 http://arma.sourceforge.net/

 Q-Chem begins on Thu Jun 18 11:06:12 2020  

Host: 
0

     Scratch files written to /scratch/xuedong/qchem40619//
 May118 |scratch|qcdevops|jenkins|workspace|build_RNUM 6581   
Processing $rem in /home/qwang/software/qchem5.1/config/preferences.
 MEM_TOTAL  2000 
Core orbitals will be frozen

Checking the input file for inconsistencies... 	...done.

--------------------------------------------------------------
User input:
--------------------------------------------------------------
$molecule
0 1
C         1.4935376149   -0.4260858074   -0.0000113654
Si       -0.1108518219    0.5267090240   -0.0001330548
H        -0.1963368902    1.4078008799   -1.2001750217
H        -0.1960438568    1.4086205915    1.1993281249
O        -1.3392565228   -0.6136706926    0.0004129535
H         1.5667835265   -1.0642174936    0.8841559784
H         1.5663937966   -1.0650747421   -0.8835921417
H         2.3515944685    0.2527048564   -0.0005312349
H        -2.2456133566   -0.2701520450    0.0004998144
$end

$rem
JOBTYPE  =  opt
METHOD  =  MP2
BASIS  =  6-311G+(d,p)
SCF_MAX_CYCLES  =  200
GEOM_OPT_MAX_CYCLES  =  300
GEOM_OPT_TOL_DISPLACEMENT = 120
GEOM_OPT_TOL_ENERGY = 10
GEOM_OPT_TOL_GRADIENT = 20
$end
--------------------------------------------------------------
 ----------------------------------------------------------------
             Standard Nuclear Orientation (Angstroms)
    I     Atom           X                Y                Z
 ----------------------------------------------------------------
    1      C       1.5177783867    -0.4046457228     0.0000050169
    2      Si     -0.1103010938     0.5070782899    -0.0000012874
    3      H      -0.2179958068     1.3861316132    -1.1997505868
    4      H      -0.2180215706     1.3861229098     1.1997527175
    5      O      -1.3093352658    -0.6641438750    -0.0000119908
    6      H       1.6071041312    -1.0410182879     0.8839619016
    7      H       1.6069557569    -1.0412695665    -0.8837864452
    8      H       2.3583120243     0.2957268739    -0.0001666127
    9      H      -2.2241274152    -0.3437642639     0.0000728752
 ----------------------------------------------------------------
 Molecular Point Group                 C1    NOp =  1
 Largest Abelian Subgroup              C1    NOp =  1
 Nuclear Repulsion Energy =   116.4706452978 hartrees
 There are       17 alpha and       17 beta electrons
 Requested basis set is 6-311+G(d,p)
 There are 49 shells and 110 basis functions

 Total QAlloc Memory Limit   2000 MB
 Mega-Array Size       188 MB
 MEM_STATIC part       192 MB
 A cutoff of  1.0D-11 yielded   1194 shell pairs
 There are      6116 function pairs (      6466 Cartesian)
 
 -------------------------------------------------------
 OpenMP Integral Computing Module                       
 Release: version 1.0, May 2013, Q-Chem Inc. Pittsburgh 
 -------------------------------------------------------
 Integral Job Info:
 Integral job number is                      11
 Integral operator is                         1
 short-range coefficients                     0
 long-range coefficients              100000000
 Omega coefficients                           0
 if combine SR and LR in K                    0
 Integral screening is                        0
 Integral computing path is                   2
 max size of driver memory is            800000
 size of driver memory is                593474
 size of scratch memory is              4204008
 max col of scratch BK array               1296
 max len of scratch array in speh3          155
 max len of scratch index in speh4           18
 max int batch size is                      520
 min int batch size is                       52
 fixed nKL is                                52
 max L of basis functions is                  2
 order of int derivative is                   0
 number of shells is                         49
 number of basis is                         113
 number of cartesian basis is               113
 number of contracted shell pairs          1194
 number of primitive shell pairs           2909
 maxK2 (contraction) of shell pair           36
 max number of K2 of shell pair               1
 max number of CS2 of shell pair            157
 max number of PS2 of shell pair            321
 mem total for path MDJ                  511410
 -------------------------------------------------------
 Smallest overlap matrix eigenvalue = 7.51E-04

 Scale SEOQF with 1.000000e-01/1.000000e-01/1.000000e-01

 Standard Electronic Orientation quadrupole field applied
 Nucleus-field energy     =     0.0000000021 hartrees
 Guess from superposition of atomic densities
 Warning:  Energy on first SCF cycle will be non-variational
 SAD guess density has 34.000000 electrons

 -----------------------------------------------------------------------
  General SCF calculation program by
  Eric Jon Sundstrom, Paul Horn, Yuezhi Mao, Dmitri Zuev, Alec White,
  David Stuck, Shaama M.S., Shane Yost, Joonho Lee, David Small,
  Daniel Levine, Susi Lehtola, Hugh Burton, Evgeny Epifanovsky
 -----------------------------------------------------------------------
 Hartree-Fock
 using 4 threads for integral computing
 -------------------------------------------------------
 OpenMP Integral computing Module                
 Release: version 1.0, May 2013, Q-Chem Inc. Pittsburgh 
 -------------------------------------------------------
 A restricted SCF calculation will be
 performed using DIIS
 SCF converges when DIIS error is below 1.0e-08
 ---------------------------------------
  Cycle       Energy         DIIS error
 ---------------------------------------
    1    -405.5429806916      5.46e-02  
    2    -405.1863926049      6.31e-03  
    3    -405.2317400438      3.69e-03  
    4    -405.2460815813      6.29e-04  
    5    -405.2468576792      1.22e-04  
    6    -405.2468947288      3.34e-05  
    7    -405.2468974171      8.09e-06  
    8    -405.2468976590      1.81e-06  
    9    -405.2468976718      3.66e-07  
   10    -405.2468976722      1.01e-07  
   11    -405.2468976723      2.23e-08  
   12    -405.2468976723      4.48e-09  Convergence criterion met
 ---------------------------------------
 SCF time:   CPU 5.96s  wall 1.00s 
 SCF   energy in the final basis set =     -405.2468976723
 Total energy in the final basis set =     -405.2468976723
 
 Components of the MP2 correlation energy:
        aaaa  correlation energy =        -0.0527358482 au
        abab  correlation energy =        -0.3628155198 au
        bbbb  correlation energy =        -0.0527358482 au
        non-Brillouin singles    =        -0.0000000000 au

 Total  MP2   correlation energy =                    -0.46828722 au
        MP2         total energy =                  -405.71518489 au
  Entering Z-vector solver.
   1         0           1      0.000207    0.000207
   2         0           1      0.000065    0.000065
   3         0           1      0.000017    0.000017
   4         0           1      0.000006    0.000006
   5         0           1      0.000001    0.000001
   6         1           0      0.000000    0.000000    Roots Converged
 
 --------------------------------------------------------------
 
                    Orbital Energies (a.u.)
 --------------------------------------------------------------
 
 Alpha MOs
 -- Occupied --
-68.795 -20.556 -11.207  -6.138  -4.246  -4.245  -4.245  -1.334
 -0.948  -0.735  -0.644  -0.571  -0.552  -0.534  -0.529  -0.452
 -0.448
 -- Virtual --
  0.060   0.062   0.075   0.083   0.120   0.128   0.129   0.182
  0.189   0.195   0.229   0.237   0.258   0.271   0.279   0.316
  0.324   0.369   0.375   0.379   0.405   0.450   0.473   0.521
  0.561   0.598   0.599   0.643   0.692   0.744   0.825   0.846
  0.850   0.907   0.928   1.061   1.077   1.114   1.146   1.297
  1.309   1.315   1.337   1.412   1.453   1.529   1.560   1.598
  1.663   1.706   1.724   1.731   1.795   1.837   1.870   1.900
  1.967   2.020   2.032   2.053   2.248   2.346   2.349   2.393
  2.501   2.511   2.775   2.814   2.830   2.852   2.861   2.894
  2.982   3.010   3.157   3.295   3.448   3.501   3.624   3.724
  4.151   4.151   4.263   5.545   5.582   6.052   6.262  12.296
 12.337  12.348  25.103  51.587 144.027
 --------------------------------------------------------------
 
          Ground-State Mulliken Net Atomic Charges

     Atom                 Charge (a.u.)
  ----------------------------------------
      1 C                    -0.809247
      2 Si                    0.980684
      3 H                    -0.191677
      4 H                    -0.191679
      5 O                    -0.568131
      6 H                     0.171923
      7 H                     0.171921
      8 H                     0.157862
      9 H                     0.278345
  ----------------------------------------
  Sum of atomic charges =    -0.000000

 -----------------------------------------------------------------
                    Cartesian Multipole Moments
 -----------------------------------------------------------------
    Charge (ESU x 10^10)
                -0.0000
    Dipole Moment (Debye)
         X      -0.3356      Y       0.9348      Z       0.0002
       Tot       0.9932
    Quadrupole Moments (Debye-Ang)
        XX     -23.2308     XY      -1.4392     YY     -30.6240
        XZ      -0.0004     YZ      -0.0001     ZZ     -29.0363
    Octopole Moments (Debye-Ang^2)
       XXX     -21.7070    XXY       1.8017    XYY       1.4246
       YYY      -4.3168    XXZ       0.0009    XYZ       0.0001
       YYZ      -0.0002    XZZ      -0.6264    YZZ      -4.5288
       ZZZ       0.0004
    Hexadecapole Moments (Debye-Ang^3)
      XXXX    -195.9587   XXXY       9.4484   XXYY     -59.3136
      XYYY       2.2049   YYYY    -117.5848   XXXZ      -0.0027
      XXYZ      -0.0009   XYYZ      -0.0004   YYYZ       0.0006
      XXZZ     -50.4074   XYZZ      -0.3111   YYZZ     -31.7311
      XZZZ       0.0005   YZZZ      -0.0002   ZZZZ     -63.6021
 -----------------------------------------------------------------
 DrvMan is completing analytic gradient of the MP2 energy
 MP2 relaxed dipole moment
            1
    1  -0.1320345
    2   0.3677908
    3   0.0000592
	Magnitude:	 0.391 au	 0.993 Debye
 MP2 energy read as -405.715185
 Full Analytical Gradient of MP2 Energy (in au.)
             1             2             3             4             5
    1    0.00207638   -0.00331870    0.00090376    0.00090352    0.00866523
    2   -0.00007937   -0.00198569    0.00283470    0.00283448   -0.00741130
    3   -0.00000021    0.00000008   -0.00292177    0.00292200   -0.00000109
             6             7             8             9
    1    0.00015294    0.00015307    0.00022433   -0.00976054
    2   -0.00009838   -0.00009857   -0.00043961    0.00444374
    3   -0.00043473    0.00043499   -0.00000020    0.00000093
 Gradient time:  CPU 0.11 s  wall 0.10 s
 Geometry Optimization Parameters
   NAtoms,    NIC,     NZ,  NCons,   NDum,   NFix, NCnnct, MaxDiis
        9      51       0       0       0       0       0       0


** GEOMETRY OPTIMIZATION IN DELOCALIZED INTERNAL COORDINATES **
   Searching for a Minimum

   Optimization Cycle:   1

                       Coordinates (Angstroms)
     ATOM                X               Y               Z
      1  C         1.5177783867   -0.4046457228    0.0000050169
      2  Si       -0.1103010938    0.5070782899   -0.0000012874
      3  H        -0.2179958068    1.3861316132   -1.1997505868
      4  H        -0.2180215706    1.3861229098    1.1997527175
      5  O        -1.3093352658   -0.6641438750   -0.0000119908
      6  H         1.6071041312   -1.0410182879    0.8839619016
      7  H         1.6069557569   -1.0412695665   -0.8837864452
      8  H         2.3583120243    0.2957268739   -0.0001666127
      9  H        -2.2241274152   -0.3437642639    0.0000728752
   Point Group: c1    Number of degrees of freedom:    21


   Energy is   -405.715184888


 Attempting to Generate Delocalized Internal Coordinates

 21 Hessian modes will be used to form the next step
  Hessian Eigenvalues:
     0.005572    0.022446    0.056397    0.056646    0.056819    0.060066
     0.112665    0.136534    0.160000    0.160000    0.160000    0.160000
     0.172543    0.172543    0.215393    0.219152    0.343450    0.344849
     0.344849    0.389223    0.535260

 Minimum Search - Taking Simple RFO Step
 Searching for Lamda that Minimizes Along All modes
 Value Taken    Lamda =  -0.00058039
 Step Taken.  Stepsize is  0.056019

                             Maximum     Tolerance    Cnvgd?
         Gradient           0.007212      0.000020      NO
         Displacement       0.035817      0.000120      NO
         Energy change     *********      0.000000      NO


 New Cartesian Coordinates Obtained by Inverse Iteration

 Displacement from previous Coordinates is:  0.055218
 ----------------------------------------------------------------
             Standard Nuclear Orientation (Angstroms)
    I     Atom           X                Y                Z
 ----------------------------------------------------------------
    1      C       1.5163812664    -0.4051941203     0.0000056292
    2      Si     -0.1023077689     0.5101064128    -0.0000030076
    3      H      -0.2253982375     1.3766643642    -1.1923686220
    4      H      -0.2254189696     1.3766684606     1.1923579642
    5      O      -1.3044494903    -0.6523530222    -0.0000055099
    6      H       1.6031591021    -1.0402185637     0.8857179974
    7      H       1.6030221033    -1.0404467583    -0.8855570924
    8      H       2.3565500936     0.2958779082    -0.0001507249
    9      H      -2.2111689522    -0.3408867107     0.0000789542
 ----------------------------------------------------------------
 Molecular Point Group                 C1    NOp =  1
 Largest Abelian Subgroup              C1    NOp =  1
 Nuclear Repulsion Energy =   116.8720476407 hartrees
 There are       17 alpha and       17 beta electrons
 Applying Cartesian multipole field
    Component          Value
    ---------          -----
     (2,0,0)        1.00000E-11
     (0,2,0)        2.00000E-11
     (0,0,2)       -3.00000E-11
 Nucleus-field energy     =     0.0000000021 hartrees
 Requested basis set is 6-311+G(d,p)
 There are 49 shells and 110 basis functions
 A cutoff of  1.0D-11 yielded   1194 shell pairs
 There are      6116 function pairs (      6466 Cartesian)
 Smallest overlap matrix eigenvalue = 7.44E-04
 Guess MOs from SCF MO coefficient file
 Reading MOs from coefficient file
 Reading MOs from coefficient file

 -----------------------------------------------------------------------
  General SCF calculation program by
  Eric Jon Sundstrom, Paul Horn, Yuezhi Mao, Dmitri Zuev, Alec White,
  David Stuck, Shaama M.S., Shane Yost, Joonho Lee, David Small,
  Daniel Levine, Susi Lehtola, Hugh Burton, Evgeny Epifanovsky
 -----------------------------------------------------------------------
 Hartree-Fock
 using 4 threads for integral computing
 -------------------------------------------------------
 OpenMP Integral computing Module                
 Release: version 1.0, May 2013, Q-Chem Inc. Pittsburgh 
 -------------------------------------------------------
 A restricted SCF calculation will be
 performed using DIIS
 SCF converges when DIIS error is below 1.0e-08
 ---------------------------------------
  Cycle       Energy         DIIS error
 ---------------------------------------
    1    -405.2643977219      6.26e-04  
    2    -405.2477539829      7.73e-05  
    3    -405.2477663612      2.47e-05  
    4    -405.2477673215      8.98e-06  
    5    -405.2477675047      3.95e-06  
    6    -405.2477675466      1.02e-06  
    7    -405.2477675503      2.82e-07  
    8    -405.2477675506      6.48e-08  
    9    -405.2477675506      2.04e-08  
   10    -405.2477675506      5.17e-09  Convergence criterion met
 ---------------------------------------
 SCF time:   CPU 5.08s  wall 2.00s 
 SCF   energy in the final basis set =     -405.2477675506
 Total energy in the final basis set =     -405.2477675506
 
 Components of the MP2 correlation energy:
        aaaa  correlation energy =        -0.0526842644 au
        abab  correlation energy =        -0.3623466837 au
        bbbb  correlation energy =        -0.0526842644 au
        non-Brillouin singles    =        -0.0000000000 au

 Total  MP2   correlation energy =                    -0.46771521 au
        MP2         total energy =                  -405.71548276 au
  Entering Z-vector solver.
   1         0           1      0.000205    0.000205
   2         0           1      0.000064    0.000064
   3         0           1      0.000017    0.000017
   4         0           1      0.000006    0.000006
   5         0           1      0.000001    0.000001
   6         1           0      0.000000    0.000000    Roots Converged
 
 --------------------------------------------------------------
 
                    Orbital Energies (a.u.)
 --------------------------------------------------------------
 
 Alpha MOs
 -- Occupied --
-68.792 -20.553 -11.207  -6.136  -4.244  -4.243  -4.243  -1.335
 -0.949  -0.737  -0.645  -0.572  -0.552  -0.534  -0.530  -0.453
 -0.449
 -- Virtual --
  0.061   0.062   0.075   0.083   0.120   0.128   0.129   0.182
  0.190   0.195   0.230   0.239   0.258   0.271   0.281   0.317
  0.323   0.369   0.375   0.380   0.406   0.451   0.474   0.522
  0.563   0.600   0.601   0.642   0.699   0.746   0.825   0.845
  0.849   0.910   0.927   1.060   1.084   1.119   1.151   1.298
  1.311   1.318   1.338   1.414   1.451   1.530   1.560   1.601
  1.661   1.709   1.722   1.736   1.797   1.835   1.874   1.904
  1.971   2.027   2.035   2.055   2.257   2.348   2.367   2.404
  2.501   2.516   2.775   2.813   2.830   2.851   2.863   2.894
  2.984   3.016   3.160   3.303   3.452   3.513   3.631   3.734
  4.149   4.152   4.276   5.546   5.585   6.076   6.270  12.308
 12.343  12.357  25.101  51.595 144.038
 --------------------------------------------------------------
 
          Ground-State Mulliken Net Atomic Charges

     Atom                 Charge (a.u.)
  ----------------------------------------
      1 C                    -0.812575
      2 Si                    0.991038
      3 H                    -0.193671
      4 H                    -0.193672
      5 O                    -0.573541
      6 H                     0.172696
      7 H                     0.172694
      8 H                     0.157821
      9 H                     0.279209
  ----------------------------------------
  Sum of atomic charges =    -0.000000

 -----------------------------------------------------------------
                    Cartesian Multipole Moments
 -----------------------------------------------------------------
    Charge (ESU x 10^10)
                 0.0000
    Dipole Moment (Debye)
         X      -0.2688      Y       0.9467      Z       0.0001
       Tot       0.9841
    Quadrupole Moments (Debye-Ang)
        XX     -23.2726     XY      -1.3984     YY     -30.5003
        XZ      -0.0004     YZ      -0.0000     ZZ     -28.9545
    Octopole Moments (Debye-Ang^2)
       XXX     -21.7809    XXY       1.7602    XYY       1.2931
       YYY      -4.4247    XXZ       0.0009    XYZ       0.0001
       YYZ      -0.0003    XZZ      -0.7132    YZZ      -4.5760
       ZZZ       0.0003
    Hexadecapole Moments (Debye-Ang^3)
      XXXX    -195.7147   XXXY       9.6963   XXYY     -58.8294
      XYYY       2.5129   YYYY    -116.3371   XXXZ      -0.0026
      XXYZ      -0.0008   XYYZ      -0.0003   YYYZ       0.0006
      XXZZ     -50.0576   XYZZ      -0.2532   YYZZ     -31.4297
      XZZZ       0.0006   YZZZ      -0.0001   ZZZZ     -63.0258
 -----------------------------------------------------------------
 DrvMan is completing analytic gradient of the MP2 energy
 MP2 relaxed dipole moment
            1
    1  -0.1057680
    2   0.3724465
    3   0.0000574
	Magnitude:	 0.387 au	 0.984 Debye
 MP2 energy read as -405.715483
 Full Analytical Gradient of MP2 Energy (in au.)
             1             2             3             4             5
    1    0.00014260   -0.00052252    0.00007591    0.00007585    0.00038907
    2    0.00015820    0.00091901   -0.00015875   -0.00015899   -0.00134342
    3   -0.00000002   -0.00000005    0.00048731   -0.00048718   -0.00000015
             6             7             8             9
    1    0.00003258    0.00003246   -0.00012111   -0.00010484
    2   -0.00014753   -0.00014779    0.00000224    0.00087703
    3    0.00004402   -0.00004380   -0.00000016    0.00000003
 Gradient time:  CPU 0.15 s  wall 0.18 s
 Geometry Optimization Parameters
   NAtoms,    NIC,     NZ,  NCons,   NDum,   NFix, NCnnct, MaxDiis
        9      51       0       0       0       0       0       0

 Cartesian Hessian Update
 Hessian Updated using BFGS Update


** GEOMETRY OPTIMIZATION IN DELOCALIZED INTERNAL COORDINATES **
   Searching for a Minimum

   Optimization Cycle:   2

                       Coordinates (Angstroms)
     ATOM                X               Y               Z
      1  C         1.5163812664   -0.4051941203    0.0000056292
      2  Si       -0.1023077689    0.5101064128   -0.0000030076
      3  H        -0.2253982375    1.3766643642   -1.1923686220
      4  H        -0.2254189696    1.3766684606    1.1923579642
      5  O        -1.3044494903   -0.6523530222   -0.0000055099
      6  H         1.6031591021   -1.0402185637    0.8857179974
      7  H         1.6030221033   -1.0404467583   -0.8855570924
      8  H         2.3565500936    0.2958779082   -0.0001507249
      9  H        -2.2111689522   -0.3408867107    0.0000789542
   Point Group: c1    Number of degrees of freedom:    21


   Energy is   -405.715482763

 Hessian Updated using BFGS Update

 19 Hessian modes will be used to form the next step
  Hessian Eigenvalues:
     0.005572    0.022446    0.056397    0.056646    0.056739    0.058716
     0.112169    0.136534    0.148561    0.160221    0.172543    0.191588
     0.215346    0.218954    0.343416    0.344849    0.345130    0.388568
     0.526986

 Minimum Search - Taking Simple RFO Step
 Searching for Lamda that Minimizes Along All modes
 Value Taken    Lamda =  -0.00001827
 Step Taken.  Stepsize is  0.011342

                             Maximum     Tolerance    Cnvgd?
         Gradient           0.000882      0.000020      NO
         Displacement       0.007597      0.000120      NO
         Energy change     -0.000298      0.000000      NO


 New Cartesian Coordinates Obtained by Inverse Iteration

 Displacement from previous Coordinates is:  0.013614
 ----------------------------------------------------------------
             Standard Nuclear Orientation (Angstroms)
    I     Atom           X                Y                Z
 ----------------------------------------------------------------
    1      C       1.5163534724    -0.4051631861     0.0000055935
    2      Si     -0.1010488671     0.5112859144    -0.0000045234
    3      H      -0.2246815272     1.3771932845    -1.1942251417
    4      H      -0.2246983661     1.3772106393     1.1942023621
    5      O      -1.3043996245    -0.6495092778     0.0000009394
    6      H       1.6021463776    -1.0397830102     0.8858816221
    7      H       1.6020228755    -1.0399889808    -0.8857354212
    8      H       2.3576666830     0.2947676810    -0.0001354314
    9      H      -2.2129918765    -0.3457950938     0.0000855889
 ----------------------------------------------------------------
 Molecular Point Group                 C1    NOp =  1
 Largest Abelian Subgroup              C1    NOp =  1
 Nuclear Repulsion Energy =   116.8765981737 hartrees
 There are       17 alpha and       17 beta electrons
 Applying Cartesian multipole field
    Component          Value
    ---------          -----
     (2,0,0)        1.00000E-11
     (0,2,0)        2.00000E-11
     (0,0,2)       -3.00000E-11
 Nucleus-field energy     =     0.0000000021 hartrees
 Requested basis set is 6-311+G(d,p)
 There are 49 shells and 110 basis functions
 A cutoff of  1.0D-11 yielded   1194 shell pairs
 There are      6116 function pairs (      6466 Cartesian)
 Smallest overlap matrix eigenvalue = 7.45E-04
 Guess MOs from SCF MO coefficient file
 Reading MOs from coefficient file
 Reading MOs from coefficient file

 -----------------------------------------------------------------------
  General SCF calculation program by
  Eric Jon Sundstrom, Paul Horn, Yuezhi Mao, Dmitri Zuev, Alec White,
  David Stuck, Shaama M.S., Shane Yost, Joonho Lee, David Small,
  Daniel Levine, Susi Lehtola, Hugh Burton, Evgeny Epifanovsky
 -----------------------------------------------------------------------
 Hartree-Fock
 using 4 threads for integral computing
 -------------------------------------------------------
 OpenMP Integral computing Module                
 Release: version 1.0, May 2013, Q-Chem Inc. Pittsburgh 
 -------------------------------------------------------
 A restricted SCF calculation will be
 performed using DIIS
 SCF converges when DIIS error is below 1.0e-08
 ---------------------------------------
  Cycle       Energy         DIIS error
 ---------------------------------------
    1    -405.2482792904      1.05e-04  
    2    -405.2478564220      1.90e-05  
    3    -405.2478573313      5.92e-06  
    4    -405.2478574576      2.25e-06  
    5    -405.2478574726      7.82e-07  
    6    -405.2478574744      2.18e-07  
    7    -405.2478574745      7.34e-08  
    8    -405.2478574745      1.72e-08  
    9    -405.2478574745      3.43e-09  Convergence criterion met
 ---------------------------------------
 SCF time:   CPU 5.11s  wall 1.00s 
 SCF   energy in the final basis set =     -405.2478574745
 Total energy in the final basis set =     -405.2478574745
 
 Components of the MP2 correlation energy:
        aaaa  correlation energy =        -0.0526759642 au
        abab  correlation energy =        -0.3622861113 au
        bbbb  correlation energy =        -0.0526759642 au
        non-Brillouin singles    =        -0.0000000000 au

 Total  MP2   correlation energy =                    -0.46763804 au
        MP2         total energy =                  -405.71549551 au
  Entering Z-vector solver.
   1         0           1      0.000204    0.000204
   2         0           1      0.000064    0.000064
   3         0           1      0.000017    0.000017
   4         0           1      0.000006    0.000006
   5         0           1      0.000001    0.000001
   6         1           0      0.000000    0.000000    Roots Converged
 
 --------------------------------------------------------------
 
                    Orbital Energies (a.u.)
 --------------------------------------------------------------
 
 Alpha MOs
 -- Occupied --
-68.792 -20.553 -11.207  -6.136  -4.244  -4.243  -4.243  -1.335
 -0.949  -0.738  -0.645  -0.572  -0.552  -0.534  -0.530  -0.453
 -0.449
 -- Virtual --
  0.061   0.062   0.075   0.083   0.120   0.128   0.129   0.182
  0.190   0.195   0.230   0.239   0.258   0.271   0.282   0.317
  0.323   0.369   0.375   0.379   0.406   0.451   0.474   0.522
  0.564   0.599   0.602   0.642   0.699   0.747   0.825   0.845
  0.849   0.911   0.927   1.060   1.083   1.119   1.151   1.298
  1.311   1.319   1.339   1.415   1.452   1.530   1.561   1.601
  1.662   1.710   1.722   1.737   1.798   1.835   1.874   1.903
  1.971   2.029   2.035   2.055   2.256   2.348   2.368   2.403
  2.501   2.516   2.775   2.813   2.830   2.852   2.864   2.895
  2.984   3.015   3.160   3.303   3.449   3.514   3.631   3.736
  4.149   4.153   4.276   5.546   5.584   6.077   6.270  12.308
 12.342  12.357  25.102  51.595 144.037
 --------------------------------------------------------------
 
          Ground-State Mulliken Net Atomic Charges

     Atom                 Charge (a.u.)
  ----------------------------------------
      1 C                    -0.811954
      2 Si                    0.991326
      3 H                    -0.193705
      4 H                    -0.193707
      5 O                    -0.575704
      6 H                     0.172703
      7 H                     0.172701
      8 H                     0.157901
      9 H                     0.280439
  ----------------------------------------
  Sum of atomic charges =    -0.000000

 -----------------------------------------------------------------
                    Cartesian Multipole Moments
 -----------------------------------------------------------------
    Charge (ESU x 10^10)
                -0.0000
    Dipole Moment (Debye)
         X      -0.2692      Y       0.9342      Z       0.0001
       Tot       0.9722
    Quadrupole Moments (Debye-Ang)
        XX     -23.2453     XY      -1.3646     YY     -30.4934
        XZ      -0.0004     YZ      -0.0000     ZZ     -28.9595
    Octopole Moments (Debye-Ang^2)
       XXX     -21.8848    XXY       1.6538    XYY       1.2431
       YYY      -4.5310    XXZ       0.0009    XYZ       0.0001
       YYZ      -0.0003    XZZ      -0.7250    YZZ      -4.6178
       ZZZ       0.0003
    Hexadecapole Moments (Debye-Ang^3)
      XXXX    -195.3794   XXXY       9.9111   XXYY     -58.7705
      XYYY       2.5604   YYYY    -116.3626   XXXZ      -0.0025
      XXYZ      -0.0008   XYYZ      -0.0003   YYYZ       0.0007
      XXZZ     -50.0636   XYZZ      -0.2470   YYZZ     -31.4564
      XZZZ       0.0006   YZZZ       0.0001   ZZZZ     -63.1199
 -----------------------------------------------------------------
 DrvMan is completing analytic gradient of the MP2 energy
 MP2 relaxed dipole moment
            1
    1  -0.1059291
    2   0.3675356
    3   0.0000566
	Magnitude:	 0.382 au	 0.972 Debye
 MP2 energy read as -405.715496
 Full Analytical Gradient of MP2 Energy (in au.)
             1             2             3             4             5
    1   -0.00004851    0.00019191   -0.00005061   -0.00005067   -0.00031914
    2    0.00002670    0.00031890   -0.00001917   -0.00001934   -0.00064508
    3    0.00000007   -0.00000008    0.00006185   -0.00006173   -0.00000009
             6             7             8             9
    1    0.00000587    0.00000570   -0.00001200    0.00027745
    2   -0.00001850   -0.00001870    0.00002298    0.00035220
    3   -0.00000160    0.00000172   -0.00000013   -0.00000001
 Gradient time:  CPU 0.11 s  wall 0.10 s
 Geometry Optimization Parameters
   NAtoms,    NIC,     NZ,  NCons,   NDum,   NFix, NCnnct, MaxDiis
        9      51       0       0       0       0       0       0

 Cartesian Hessian Update
 Hessian Updated using BFGS Update


** GEOMETRY OPTIMIZATION IN DELOCALIZED INTERNAL COORDINATES **
   Searching for a Minimum

   Optimization Cycle:   3

                       Coordinates (Angstroms)
     ATOM                X               Y               Z
      1  C         1.5163534724   -0.4051631861    0.0000055935
      2  Si       -0.1010488671    0.5112859144   -0.0000045234
      3  H        -0.2246815272    1.3771932845   -1.1942251417
      4  H        -0.2246983661    1.3772106393    1.1942023621
      5  O        -1.3043996245   -0.6495092778    0.0000009394
      6  H         1.6021463776   -1.0397830102    0.8858816221
      7  H         1.6020228755   -1.0399889808   -0.8857354212
      8  H         2.3576666830    0.2947676810   -0.0001354314
      9  H        -2.2129918765   -0.3457950938    0.0000855889
   Point Group: c1    Number of degrees of freedom:    21


   Energy is   -405.715495514

 Hessian Updated using BFGS Update

 17 Hessian modes will be used to form the next step
  Hessian Eigenvalues:
     0.005572    0.022446    0.056396    0.056521    0.056646    0.057808
     0.081192    0.114881    0.160063    0.160215    0.192703    0.216086
     0.227617    0.343656    0.345916    0.391594    0.544711

 Minimum Search - Taking Simple RFO Step
 Searching for Lamda that Minimizes Along All modes
 Value Taken    Lamda =  -0.00000826
 Step Taken.  Stepsize is  0.010335

                             Maximum     Tolerance    Cnvgd?
         Gradient           0.000560      0.000020      NO
         Displacement       0.007133      0.000120      NO
         Energy change     -0.000013      0.000000      NO


 New Cartesian Coordinates Obtained by Inverse Iteration

 Displacement from previous Coordinates is:  0.015769
 ----------------------------------------------------------------
             Standard Nuclear Orientation (Angstroms)
    I     Atom           X                Y                Z
 ----------------------------------------------------------------
    1      C       1.5159376071    -0.4050216507     0.0000052630
    2      Si     -0.1005835220     0.5129012675    -0.0000069836
    3      H      -0.2228585948     1.3784344485    -1.1949566251
    4      H      -0.2228690125     1.3784714210     1.1949154267
    5      O      -1.3038559401    -0.6470215983     0.0000108463
    6      H       1.6008541545    -1.0395315999     0.8859825073
    7      H       1.6007528395    -1.0397043429    -0.8858585831
    8      H       2.3582159694     0.2937748152    -0.0001121192
    9      H      -2.2152243542    -0.3520847900     0.0000958561
 ----------------------------------------------------------------
 Molecular Point Group                 C1    NOp =  1
 Largest Abelian Subgroup              C1    NOp =  1
 Nuclear Repulsion Energy =   116.8869437976 hartrees
 There are       17 alpha and       17 beta electrons
 Applying Cartesian multipole field
    Component          Value
    ---------          -----
     (2,0,0)        1.00000E-11
     (0,2,0)        2.00000E-11
     (0,0,2)       -3.00000E-11
 Nucleus-field energy     =     0.0000000021 hartrees
 Requested basis set is 6-311+G(d,p)
 There are 49 shells and 110 basis functions
 A cutoff of  1.0D-11 yielded   1194 shell pairs
 There are      6116 function pairs (      6466 Cartesian)
 Smallest overlap matrix eigenvalue = 7.46E-04
 Guess MOs from SCF MO coefficient file
 Reading MOs from coefficient file
 Reading MOs from coefficient file

 -----------------------------------------------------------------------
  General SCF calculation program by
  Eric Jon Sundstrom, Paul Horn, Yuezhi Mao, Dmitri Zuev, Alec White,
  David Stuck, Shaama M.S., Shane Yost, Joonho Lee, David Small,
  Daniel Levine, Susi Lehtola, Hugh Burton, Evgeny Epifanovsky
 -----------------------------------------------------------------------
 Hartree-Fock
 using 4 threads for integral computing
 -------------------------------------------------------
 OpenMP Integral computing Module                
 Release: version 1.0, May 2013, Q-Chem Inc. Pittsburgh 
 -------------------------------------------------------
 A restricted SCF calculation will be
 performed using DIIS
 SCF converges when DIIS error is below 1.0e-08
 ---------------------------------------
  Cycle       Energy         DIIS error
 ---------------------------------------
    1    -405.2482849932      9.86e-05  
    2    -405.2479141577      2.02e-05  
    3    -405.2479152136      5.77e-06  
    4    -405.2479153447      1.89e-06  
    5    -405.2479153543      7.65e-07  
    6    -405.2479153559      1.69e-07  
    7    -405.2479153560      4.45e-08  
    8    -405.2479153560      1.06e-08  
    9    -405.2479153560      2.65e-09  Convergence criterion met
 ---------------------------------------
 SCF time:   CPU 5.31s  wall 2.00s 
 SCF   energy in the final basis set =     -405.2479153560
 Total energy in the final basis set =     -405.2479153560
 
 Components of the MP2 correlation energy:
        aaaa  correlation energy =        -0.0526699101 au
        abab  correlation energy =        -0.3622450320 au
        bbbb  correlation energy =        -0.0526699101 au
        non-Brillouin singles    =        -0.0000000000 au

 Total  MP2   correlation energy =                    -0.46758485 au
        MP2         total energy =                  -405.71550021 au
  Entering Z-vector solver.
   1         0           1      0.000204    0.000204
   2         0           1      0.000064    0.000064
   3         0           1      0.000017    0.000017
   4         0           1      0.000006    0.000006
   5         0           1      0.000001    0.000001
   6         1           0      0.000000    0.000000    Roots Converged
 
 --------------------------------------------------------------
 
                    Orbital Energies (a.u.)
 --------------------------------------------------------------
 
 Alpha MOs
 -- Occupied --
-68.792 -20.553 -11.206  -6.136  -4.244  -4.243  -4.243  -1.335
 -0.949  -0.739  -0.644  -0.572  -0.552  -0.534  -0.530  -0.453
 -0.449
 -- Virtual --
  0.061   0.062   0.075   0.083   0.120   0.128   0.129   0.182
  0.190   0.196   0.230   0.238   0.258   0.272   0.282   0.317
  0.323   0.369   0.375   0.379   0.407   0.451   0.474   0.522
  0.564   0.600   0.602   0.642   0.698   0.747   0.825   0.846
  0.849   0.912   0.927   1.060   1.083   1.119   1.151   1.297
  1.311   1.318   1.339   1.416   1.453   1.530   1.562   1.601
  1.662   1.710   1.722   1.738   1.799   1.835   1.874   1.902
  1.971   2.031   2.035   2.055   2.256   2.348   2.368   2.403
  2.501   2.516   2.776   2.814   2.830   2.852   2.865   2.895
  2.985   3.014   3.160   3.303   3.445   3.514   3.631   3.739
  4.149   4.153   4.276   5.546   5.584   6.078   6.270  12.308
 12.342  12.356  25.102  51.596 144.037
 --------------------------------------------------------------
 
          Ground-State Mulliken Net Atomic Charges

     Atom                 Charge (a.u.)
  ----------------------------------------
      1 C                    -0.811086
      2 Si                    0.991648
      3 H                    -0.193781
      4 H                    -0.193783
      5 O                    -0.577681
      6 H                     0.172573
      7 H                     0.172571
      8 H                     0.157850
      9 H                     0.281689
  ----------------------------------------
  Sum of atomic charges =    -0.000000

 -----------------------------------------------------------------
                    Cartesian Multipole Moments
 -----------------------------------------------------------------
    Charge (ESU x 10^10)
                 0.0000
    Dipole Moment (Debye)
         X      -0.2826      Y       0.9214      Z       0.0001
       Tot       0.9637
    Quadrupole Moments (Debye-Ang)
        XX     -23.2109     XY      -1.3246     YY     -30.4848
        XZ      -0.0004     YZ      -0.0000     ZZ     -28.9619
    Octopole Moments (Debye-Ang^2)
       XXX     -22.0209    XXY       1.5292    XYY       1.1864
       YYY      -4.6428    XXZ       0.0010    XYZ       0.0000
       YYZ      -0.0003    XZZ      -0.7391    YZZ      -4.6568
       ZZZ       0.0003
    Hexadecapole Moments (Debye-Ang^3)
      XXXX    -194.9497   XXXY      10.1653   XXYY     -58.6925
      XYYY       2.6068   YYYY    -116.4489   XXXZ      -0.0024
      XXYZ      -0.0006   XYYZ      -0.0001   YYYZ       0.0007
      XXZZ     -50.0512   XYZZ      -0.2385   YYZZ     -31.4850
      XZZZ       0.0008   YZZZ       0.0004   ZZZZ     -63.1596
 -----------------------------------------------------------------
 DrvMan is completing analytic gradient of the MP2 energy
 MP2 relaxed dipole moment
            1
    1  -0.1111762
    2   0.3624912
    3   0.0000551
	Magnitude:	 0.379 au	 0.964 Debye
 MP2 energy read as -405.715500
 Full Analytical Gradient of MP2 Energy (in au.)
             1             2             3             4             5
    1   -0.00006527    0.00027936   -0.00003751   -0.00003759   -0.00021506
    2   -0.00000326    0.00005940   -0.00001183   -0.00001192   -0.00013598
    3    0.00000012   -0.00000006   -0.00005598    0.00005606   -0.00000009
             6             7             8             9
    1   -0.00000571   -0.00000589    0.00002007    0.00006760
    2    0.00003443    0.00003430   -0.00000119    0.00003605
    3   -0.00000296    0.00000298   -0.00000010    0.00000002
 Gradient time:  CPU 0.13 s  wall 0.12 s
 Geometry Optimization Parameters
   NAtoms,    NIC,     NZ,  NCons,   NDum,   NFix, NCnnct, MaxDiis
        9      51       0       0       0       0       0       0

 Cartesian Hessian Update
 Hessian Updated using BFGS Update


** GEOMETRY OPTIMIZATION IN DELOCALIZED INTERNAL COORDINATES **
   Searching for a Minimum

   Optimization Cycle:   4

                       Coordinates (Angstroms)
     ATOM                X               Y               Z
      1  C         1.5159376071   -0.4050216507    0.0000052630
      2  Si       -0.1005835220    0.5129012675   -0.0000069836
      3  H        -0.2228585948    1.3784344485   -1.1949566251
      4  H        -0.2228690125    1.3784714210    1.1949154267
      5  O        -1.3038559401   -0.6470215983    0.0000108463
      6  H         1.6008541545   -1.0395315999    0.8859825073
      7  H         1.6007528395   -1.0397043429   -0.8858585831
      8  H         2.3582159694    0.2937748152   -0.0001121192
      9  H        -2.2152243542   -0.3520847900    0.0000958561
   Point Group: c1    Number of degrees of freedom:    21


   Energy is   -405.715500208

 Hessian Updated using BFGS Update

 21 Hessian modes will be used to form the next step
  Hessian Eigenvalues:
     0.005572    0.022446    0.056397    0.056646    0.056846    0.060227
     0.066501    0.114821    0.136534    0.160000    0.160022    0.160478
     0.172543    0.192977    0.215874    0.229530    0.343652    0.344849
     0.346169    0.389436    0.542201

 Minimum Search - Taking Simple RFO Step
 Searching for Lamda that Minimizes Along All modes
 Value Taken    Lamda =   0.00000000
 Step Taken.  Stepsize is  0.002417

                             Maximum     Tolerance    Cnvgd?
         Gradient           0.000145      0.000020      NO
         Displacement       0.001266      0.000120      NO
         Energy change     -0.000005      0.000000      NO


 New Cartesian Coordinates Obtained by Inverse Iteration

 Displacement from previous Coordinates is:  0.004082
 ----------------------------------------------------------------
             Standard Nuclear Orientation (Angstroms)
    I     Atom           X                Y                Z
 ----------------------------------------------------------------
    1      C       1.5157398538    -0.4050498182     0.0000049045
    2      Si     -0.1007476518     0.5133200621    -0.0000083939
    3      H      -0.2223818454     1.3790800463    -1.1947790944
    4      H      -0.2223881093     1.3791265685     1.1947285135
    5      O      -1.3034877339    -0.6466774127     0.0000160979
    6      H       1.6005424286    -1.0396875005     0.8859346195
    7      H       1.6004535688    -1.0398436647    -0.8858219811
    8      H       2.3581169010     0.2936029727    -0.0001000587
    9      H      -2.2154782649    -0.3536532830     0.0001009807
 ----------------------------------------------------------------
 Molecular Point Group                 C1    NOp =  1
 Largest Abelian Subgroup              C1    NOp =  1
 Nuclear Repulsion Energy =   116.8921253964 hartrees
 There are       17 alpha and       17 beta electrons
 Applying Cartesian multipole field
    Component          Value
    ---------          -----
     (2,0,0)        1.00000E-11
     (0,2,0)        2.00000E-11
     (0,0,2)       -3.00000E-11
 Nucleus-field energy     =     0.0000000021 hartrees
 Requested basis set is 6-311+G(d,p)
 There are 49 shells and 110 basis functions
 A cutoff of  1.0D-11 yielded   1194 shell pairs
 There are      6116 function pairs (      6466 Cartesian)
 Smallest overlap matrix eigenvalue = 7.47E-04
 Guess MOs from SCF MO coefficient file
 Reading MOs from coefficient file
 Reading MOs from coefficient file

 -----------------------------------------------------------------------
  General SCF calculation program by
  Eric Jon Sundstrom, Paul Horn, Yuezhi Mao, Dmitri Zuev, Alec White,
  David Stuck, Shaama M.S., Shane Yost, Joonho Lee, David Small,
  Daniel Levine, Susi Lehtola, Hugh Burton, Evgeny Epifanovsky
 -----------------------------------------------------------------------
 Hartree-Fock
 using 4 threads for integral computing
 -------------------------------------------------------
 OpenMP Integral computing Module                
 Release: version 1.0, May 2013, Q-Chem Inc. Pittsburgh 
 -------------------------------------------------------
 A restricted SCF calculation will be
 performed using DIIS
 SCF converges when DIIS error is below 1.0e-08
 ---------------------------------------
  Cycle       Energy         DIIS error
 ---------------------------------------
    1    -405.2480229881      2.72e-05  
    2    -405.2479264536      4.68e-06  
    3    -405.2479265053      1.82e-06  
    4    -405.2479265122      9.33e-07  
    5    -405.2479265140      1.77e-07  
    6    -405.2479265141      6.14e-08  
    7    -405.2479265141      1.41e-08  
    8    -405.2479265141      2.79e-09  Convergence criterion met
 ---------------------------------------
 SCF time:   CPU 4.48s  wall 1.00s 
 SCF   energy in the final basis set =     -405.2479265141
 Total energy in the final basis set =     -405.2479265141
 
 Components of the MP2 correlation energy:
        aaaa  correlation energy =        -0.0526684146 au
        abab  correlation energy =        -0.3622371913 au
        bbbb  correlation energy =        -0.0526684146 au
        non-Brillouin singles    =        -0.0000000000 au

 Total  MP2   correlation energy =                    -0.46757402 au
        MP2         total energy =                  -405.71550053 au
  Entering Z-vector solver.
   1         0           1      0.000204    0.000204
   2         0           1      0.000064    0.000064
   3         0           1      0.000017    0.000017
   4         0           1      0.000006    0.000006
   5         0           1      0.000001    0.000001
   6         1           0      0.000000    0.000000    Roots Converged
 
 --------------------------------------------------------------
 
                    Orbital Energies (a.u.)
 --------------------------------------------------------------
 
 Alpha MOs
 -- Occupied --
-68.792 -20.553 -11.206  -6.136  -4.244  -4.243  -4.243  -1.335
 -0.949  -0.739  -0.644  -0.572  -0.552  -0.534  -0.530  -0.452
 -0.449
 -- Virtual --
  0.061   0.062   0.075   0.083   0.120   0.128   0.129   0.182
  0.190   0.196   0.231   0.238   0.258   0.272   0.282   0.317
  0.323   0.369   0.375   0.379   0.407   0.451   0.474   0.522
  0.564   0.600   0.602   0.642   0.698   0.747   0.826   0.846
  0.850   0.912   0.927   1.060   1.083   1.119   1.151   1.298
  1.311   1.318   1.339   1.416   1.453   1.531   1.562   1.601
  1.662   1.710   1.723   1.738   1.799   1.835   1.874   1.902
  1.971   2.031   2.035   2.055   2.256   2.348   2.367   2.403
  2.501   2.516   2.776   2.814   2.830   2.852   2.865   2.895
  2.985   3.014   3.160   3.303   3.444   3.514   3.631   3.739
  4.149   4.153   4.276   5.546   5.584   6.078   6.270  12.308
 12.342  12.356  25.102  51.596 144.037
 --------------------------------------------------------------
 
          Ground-State Mulliken Net Atomic Charges

     Atom                 Charge (a.u.)
  ----------------------------------------
      1 C                    -0.810876
      2 Si                    0.991607
      3 H                    -0.193796
      4 H                    -0.193798
      5 O                    -0.577890
      6 H                     0.172523
      7 H                     0.172521
      8 H                     0.157794
      9 H                     0.281914
  ----------------------------------------
  Sum of atomic charges =    -0.000000

 -----------------------------------------------------------------
                    Cartesian Multipole Moments
 -----------------------------------------------------------------
    Charge (ESU x 10^10)
                 0.0000
    Dipole Moment (Debye)
         X      -0.2887      Y       0.9182      Z       0.0001
       Tot       0.9625
    Quadrupole Moments (Debye-Ang)
        XX     -23.2033     XY      -1.3150     YY     -30.4833
        XZ      -0.0004     YZ      -0.0000     ZZ     -28.9622
    Octopole Moments (Debye-Ang^2)
       XXX     -22.0532    XXY       1.4998    XYY       1.1748
       YYY      -4.6686    XXZ       0.0010    XYZ       0.0000
       YYZ      -0.0003    XZZ      -0.7433    YZZ      -4.6642
       ZZZ       0.0003
    Hexadecapole Moments (Debye-Ang^3)
      XXXX    -194.8450   XXXY      10.2293   XXYY     -58.6704
      XYYY       2.6228   YYYY    -116.4999   XXXZ      -0.0023
      XXYZ      -0.0006   XYYZ      -0.0001   YYYZ       0.0007
      XXZZ     -50.0409   XYZZ      -0.2331   YYZZ     -31.4946
      XZZZ       0.0009   YZZZ       0.0005   ZZZZ     -63.1553
 -----------------------------------------------------------------
 DrvMan is completing analytic gradient of the MP2 energy
 MP2 relaxed dipole moment
            1
    1  -0.1135809
    2   0.3612386
    3   0.0000539
	Magnitude:	 0.379 au	 0.962 Debye
 MP2 energy read as -405.715501
 Full Analytical Gradient of MP2 Energy (in au.)
             1             2             3             4             5
    1   -0.00001665    0.00007819   -0.00000784   -0.00000792   -0.00006539
    2   -0.00000518    0.00002797   -0.00000862   -0.00000869   -0.00002203
    3    0.00000011   -0.00000003   -0.00002536    0.00002540   -0.00000010
             6             7             8             9
    1   -0.00000021   -0.00000036    0.00000613    0.00001406
    2    0.00001169    0.00001159   -0.00000212   -0.00000461
    3    0.00000073   -0.00000070   -0.00000008    0.00000004
 Gradient time:  CPU 0.10 s  wall 0.10 s
 Geometry Optimization Parameters
   NAtoms,    NIC,     NZ,  NCons,   NDum,   NFix, NCnnct, MaxDiis
        9      51       0       0       0       0       0       0

 Cartesian Hessian Update
 Hessian Updated using BFGS Update


** GEOMETRY OPTIMIZATION IN DELOCALIZED INTERNAL COORDINATES **
   Searching for a Minimum

   Optimization Cycle:   5

                       Coordinates (Angstroms)
     ATOM                X               Y               Z
      1  C         1.5157398538   -0.4050498182    0.0000049045
      2  Si       -0.1007476518    0.5133200621   -0.0000083939
      3  H        -0.2223818454    1.3790800463   -1.1947790944
      4  H        -0.2223881093    1.3791265685    1.1947285135
      5  O        -1.3034877339   -0.6466774127    0.0000160979
      6  H         1.6005424286   -1.0396875005    0.8859346195
      7  H         1.6004535688   -1.0398436647   -0.8858219811
      8  H         2.3581169010    0.2936029727   -0.0001000587
      9  H        -2.2154782649   -0.3536532830    0.0001009807
   Point Group: c1    Number of degrees of freedom:    21


   Energy is   -405.715500535

 Hessian Updated using BFGS Update

 19 Hessian modes will be used to form the next step
  Hessian Eigenvalues:
     0.005572    0.022446    0.053693    0.056646    0.057274    0.069136
     0.115402    0.136534    0.159103    0.160000    0.160089    0.192988
     0.209088    0.217241    0.343651    0.344849    0.345700    0.367510
     0.539993

 Minimum Search - Taking Simple RFO Step
 Searching for Lamda that Minimizes Along All modes
 Value Taken    Lamda =   0.00000000
 Step Taken.  Stepsize is  0.000752

                             Maximum     Tolerance    Cnvgd?
         Gradient           0.000041      0.000020      NO
         Displacement       0.000363      0.000120      NO
         Energy change     -0.000000      0.000000      NO


 New Cartesian Coordinates Obtained by Inverse Iteration

 Displacement from previous Coordinates is:  0.001007
 ----------------------------------------------------------------
             Standard Nuclear Orientation (Angstroms)
    I     Atom           X                Y                Z
 ----------------------------------------------------------------
    1      C       1.5156944192    -0.4050722280     0.0000045559
    2      Si     -0.1008204097     0.5133627663    -0.0000094453
    3      H      -0.2223177025     1.3792969768    -1.1946203171
    4      H      -0.2223203404     1.3793504351     1.1945629605
    5      O      -1.3033604370    -0.6466878085     0.0000201671
    6      H       1.6004791668    -1.0397735197     0.8859026037
    7      H       1.6003998355    -1.0399177079    -0.8857982567
    8      H       2.3580628607     0.2935834811    -0.0000911267
    9      H      -2.2154482456    -0.3539244247     0.0001044469
 ----------------------------------------------------------------
 Molecular Point Group                 C1    NOp =  1
 Largest Abelian Subgroup              C1    NOp =  1
 Nuclear Repulsion Energy =   116.8942480935 hartrees
 There are       17 alpha and       17 beta electrons
 Applying Cartesian multipole field
    Component          Value
    ---------          -----
     (2,0,0)        1.00000E-11
     (0,2,0)        2.00000E-11
     (0,0,2)       -3.00000E-11
 Nucleus-field energy     =     0.0000000021 hartrees
 Requested basis set is 6-311+G(d,p)
 There are 49 shells and 110 basis functions
 A cutoff of  1.0D-11 yielded   1194 shell pairs
 There are      6116 function pairs (      6466 Cartesian)
 Smallest overlap matrix eigenvalue = 7.47E-04
 Guess MOs from SCF MO coefficient file
 Reading MOs from coefficient file
 Reading MOs from coefficient file

 -----------------------------------------------------------------------
  General SCF calculation program by
  Eric Jon Sundstrom, Paul Horn, Yuezhi Mao, Dmitri Zuev, Alec White,
  David Stuck, Shaama M.S., Shane Yost, Joonho Lee, David Small,
  Daniel Levine, Susi Lehtola, Hugh Burton, Evgeny Epifanovsky
 -----------------------------------------------------------------------
 Hartree-Fock
 using 4 threads for integral computing
 -------------------------------------------------------
 OpenMP Integral computing Module                
 Release: version 1.0, May 2013, Q-Chem Inc. Pittsburgh 
 -------------------------------------------------------
 A restricted SCF calculation will be
 performed using DIIS
 SCF converges when DIIS error is below 1.0e-08
 ---------------------------------------
  Cycle       Energy         DIIS error
 ---------------------------------------
    1    -405.2479520072      6.84e-06  
    2    -405.2479281403      8.69e-07  
    3    -405.2479281418      4.61e-07  
    4    -405.2479281420      1.47e-07  
    5    -405.2479281421      3.17e-08  
    6    -405.2479281421      1.21e-08  
    7    -405.2479281421      2.93e-09  Convergence criterion met
 ---------------------------------------
 SCF time:   CPU 3.55s  wall 0.00s 
 SCF   energy in the final basis set =     -405.2479281421
 Total energy in the final basis set =     -405.2479281421
 
 Components of the MP2 correlation energy:
        aaaa  correlation energy =        -0.0526681681 au
        abab  correlation energy =        -0.3622360827 au
        bbbb  correlation energy =        -0.0526681681 au
        non-Brillouin singles    =        -0.0000000000 au

 Total  MP2   correlation energy =                    -0.46757242 au
        MP2         total energy =                  -405.71550056 au
  Entering Z-vector solver.
   1         0           1      0.000204    0.000204
   2         0           1      0.000064    0.000064
   3         0           1      0.000017    0.000017
   4         0           1      0.000006    0.000006
   5         0           1      0.000001    0.000001
   6         1           0      0.000000    0.000000    Roots Converged
 
 --------------------------------------------------------------
 
                    Orbital Energies (a.u.)
 --------------------------------------------------------------
 
 Alpha MOs
 -- Occupied --
-68.792 -20.553 -11.206  -6.136  -4.244  -4.243  -4.243  -1.335
 -0.949  -0.739  -0.644  -0.572  -0.552  -0.534  -0.530  -0.452
 -0.449
 -- Virtual --
  0.061   0.062   0.075   0.083   0.120   0.128   0.129   0.182
  0.190   0.196   0.231   0.238   0.258   0.272   0.282   0.317
  0.323   0.369   0.375   0.379   0.407   0.451   0.474   0.522
  0.564   0.600   0.602   0.642   0.698   0.747   0.826   0.846
  0.850   0.912   0.927   1.060   1.083   1.119   1.151   1.298
  1.311   1.318   1.339   1.416   1.453   1.531   1.562   1.601
  1.662   1.710   1.723   1.738   1.799   1.835   1.874   1.902
  1.971   2.031   2.035   2.055   2.256   2.348   2.367   2.403
  2.501   2.516   2.776   2.814   2.830   2.852   2.865   2.895
  2.985   3.015   3.160   3.303   3.444   3.514   3.631   3.739
  4.149   4.153   4.276   5.546   5.584   6.078   6.270  12.308
 12.342  12.356  25.102  51.596 144.037
 --------------------------------------------------------------
 
          Ground-State Mulliken Net Atomic Charges

     Atom                 Charge (a.u.)
  ----------------------------------------
      1 C                    -0.810852
      2 Si                    0.991569
      3 H                    -0.193801
      4 H                    -0.193803
      5 O                    -0.577858
      6 H                     0.172513
      7 H                     0.172512
      8 H                     0.157781
      9 H                     0.281939
  ----------------------------------------
  Sum of atomic charges =    -0.000000

 -----------------------------------------------------------------
                    Cartesian Multipole Moments
 -----------------------------------------------------------------
    Charge (ESU x 10^10)
                 0.0000
    Dipole Moment (Debye)
         X      -0.2902      Y       0.9173      Z       0.0001
       Tot       0.9621
    Quadrupole Moments (Debye-Ang)
        XX     -23.2019     XY      -1.3134     YY     -30.4835
        XZ      -0.0004     YZ      -0.0000     ZZ     -28.9622
    Octopole Moments (Debye-Ang^2)
       XXX     -22.0588    XXY       1.4954    XYY       1.1733
       YYY      -4.6722    XXZ       0.0010    XYZ       0.0000
       YYZ      -0.0003    XZZ      -0.7444    YZZ      -4.6648
       ZZZ       0.0002
    Hexadecapole Moments (Debye-Ang^3)
      XXXX    -194.8248   XXXY      10.2409   XXYY     -58.6660
      XYYY       2.6265   YYYY    -116.5157   XXXZ      -0.0023
      XXYZ      -0.0005   XYYZ      -0.0000   YYYZ       0.0008
      XXZZ     -50.0371   XYZZ      -0.2314   YYZZ     -31.4967
      XZZZ       0.0009   YZZZ       0.0006   ZZZZ     -63.1501
 -----------------------------------------------------------------
 DrvMan is completing analytic gradient of the MP2 energy
 MP2 relaxed dipole moment
            1
    1  -0.1141859
    2   0.3609048
    3   0.0000525
	Magnitude:	 0.379 au	 0.962 Debye
 MP2 energy read as -405.715501
 Full Analytical Gradient of MP2 Energy (in au.)
             1             2             3             4             5
    1   -0.00000058    0.00000178    0.00000093    0.00000086   -0.00000390
    2   -0.00000261    0.00000920   -0.00000344   -0.00000349   -0.00000011
    3    0.00000009   -0.00000002   -0.00000260    0.00000263   -0.00000010
             6             7             8             9
    1    0.00000079    0.00000067    0.00000091   -0.00000146
    2    0.00000089    0.00000082    0.00000056   -0.00000183
    3    0.00000016   -0.00000014   -0.00000007    0.00000005
 Gradient time:  CPU 0.11 s  wall 0.11 s
 Geometry Optimization Parameters
   NAtoms,    NIC,     NZ,  NCons,   NDum,   NFix, NCnnct, MaxDiis
        9      51       0       0       0       0       0       0

 Cartesian Hessian Update
 Hessian Updated using BFGS Update


** GEOMETRY OPTIMIZATION IN DELOCALIZED INTERNAL COORDINATES **
   Searching for a Minimum

   Optimization Cycle:   6

                       Coordinates (Angstroms)
     ATOM                X               Y               Z
      1  C         1.5156944192   -0.4050722280    0.0000045559
      2  Si       -0.1008204097    0.5133627663   -0.0000094453
      3  H        -0.2223177025    1.3792969768   -1.1946203171
      4  H        -0.2223203404    1.3793504351    1.1945629605
      5  O        -1.3033604370   -0.6466878085    0.0000201671
      6  H         1.6004791668   -1.0397735197    0.8859026037
      7  H         1.6003998355   -1.0399177079   -0.8857982567
      8  H         2.3580628607    0.2935834811   -0.0000911267
      9  H        -2.2154482456   -0.3539244247    0.0001044469
   Point Group: c1    Number of degrees of freedom:    21


   Energy is   -405.715500561

 Hessian Updated using BFGS Update

 21 Hessian modes will be used to form the next step
  Hessian Eigenvalues:
     0.005571    0.022446    0.049305    0.056397    0.056646    0.057174
     0.070638    0.115566    0.136534    0.159842    0.160007    0.160094
     0.172543    0.193229    0.205322    0.216890    0.343575    0.344849
     0.345599    0.361515    0.541170

 Minimum Search - Taking Simple RFO Step
 Searching for Lamda that Minimizes Along All modes
 Value Taken    Lamda =   0.00000000
 Step Taken.  Stepsize is  0.000132

                             Maximum     Tolerance    Cnvgd?
         Gradient           0.000007      0.000020     YES
         Displacement       0.000058      0.000120     YES
         Energy change     -0.000000      0.000000     YES


                       Distance Matrix (Angstroms)
             C (  1)   Si(  2)   H (  3)   H (  4)   O (  5)   H (  6)
   Si(  2)  1.859205
   H (  3)  2.762569  1.480439
   H (  4)  2.762577  1.480439  2.389183
   O (  5)  2.829390  1.670874  2.588520  2.588515
   H (  6)  1.093092  2.468095  3.674652  3.044672  3.061305
   H (  7)  1.093092  2.468087  3.044712  3.674652  3.061230  1.771701
   H (  8)  1.094397  2.468686  3.043688  3.043758  3.780229  1.771090
   H (  9)  3.731493  2.285572  2.898964  2.898885  0.957922  3.976975
             H (  7)   H (  8)
   H (  8)  1.771089
   H (  9)  3.976947  4.619120
 
 Final energy is   -405.715500561006     


 ******************************
 **  OPTIMIZATION CONVERGED  **
 ******************************

                       Coordinates (Angstroms)
     ATOM                X               Y               Z
      1  C         1.5156944192   -0.4050722280    0.0000045559
      2  Si       -0.1008204097    0.5133627663   -0.0000094453
      3  H        -0.2223177025    1.3792969768   -1.1946203171
      4  H        -0.2223203404    1.3793504351    1.1945629605
      5  O        -1.3033604370   -0.6466878085    0.0000201671
      6  H         1.6004791668   -1.0397735197    0.8859026037
      7  H         1.6003998355   -1.0399177079   -0.8857982567
      8  H         2.3580628607    0.2935834811   -0.0000911267
      9  H        -2.2154482456   -0.3539244247    0.0001044469

Z-matrix Print:
$molecule
0 1
Si
H  1 1.480439
H  1 1.480439 2 107.591635
O  1 1.670874 2 110.306625 3 120.365631 0
H  4 0.957922 1 118.234638 2 -59.366587 0
C  1 1.859205 2 111.119055 3 -121.848222 0
H  6 1.093092 1 110.749425 2 179.812932 0
H  6 1.093092 1 110.748796 2 -60.051553 0
H  6 1.094397 1 110.724479 2 59.880417 0
$end

 
 --------------------------------------------------------------
 
                    Orbital Energies (a.u.)
 --------------------------------------------------------------
 
 Alpha MOs
 -- Occupied --
-68.792 -20.553 -11.206  -6.136  -4.244  -4.243  -4.243  -1.335
 -0.949  -0.739  -0.644  -0.572  -0.552  -0.534  -0.530  -0.452
 -0.449
 -- Virtual --
  0.061   0.062   0.075   0.083   0.120   0.128   0.129   0.182
  0.190   0.196   0.231   0.238   0.258   0.272   0.282   0.317
  0.323   0.369   0.375   0.379   0.407   0.451   0.474   0.522
  0.564   0.600   0.602   0.642   0.698   0.747   0.826   0.846
  0.850   0.912   0.927   1.060   1.083   1.119   1.151   1.298
  1.311   1.318   1.339   1.416   1.453   1.531   1.562   1.601
  1.662   1.710   1.723   1.738   1.799   1.835   1.874   1.902
  1.971   2.031   2.035   2.055   2.256   2.348   2.367   2.403
  2.501   2.516   2.776   2.814   2.830   2.852   2.865   2.895
  2.985   3.015   3.160   3.303   3.444   3.514   3.631   3.739
  4.149   4.153   4.276   5.546   5.584   6.078   6.270  12.308
 12.342  12.356  25.102  51.596 144.037
 --------------------------------------------------------------
 
          Ground-State Mulliken Net Atomic Charges

     Atom                 Charge (a.u.)
  ----------------------------------------
      1 C                    -0.810852
      2 Si                    0.991569
      3 H                    -0.193801
      4 H                    -0.193803
      5 O                    -0.577858
      6 H                     0.172513
      7 H                     0.172512
      8 H                     0.157781
      9 H                     0.281939
  ----------------------------------------
  Sum of atomic charges =    -0.000000

 -----------------------------------------------------------------
                    Cartesian Multipole Moments
 -----------------------------------------------------------------
    Charge (ESU x 10^10)
                 0.0000
    Dipole Moment (Debye)
         X      -0.2902      Y       0.9173      Z       0.0001
       Tot       0.9621
    Quadrupole Moments (Debye-Ang)
        XX     -23.2019     XY      -1.3134     YY     -30.4835
        XZ      -0.0004     YZ      -0.0000     ZZ     -28.9622
    Octopole Moments (Debye-Ang^2)
       XXX     -22.0588    XXY       1.4954    XYY       1.1733
       YYY      -4.6722    XXZ       0.0010    XYZ       0.0000
       YYZ      -0.0003    XZZ      -0.7444    YZZ      -4.6648
       ZZZ       0.0002
    Hexadecapole Moments (Debye-Ang^3)
      XXXX    -194.8248   XXXY      10.2409   XXYY     -58.6660
      XYYY       2.6265   YYYY    -116.5157   XXXZ      -0.0023
      XXYZ      -0.0005   XYYZ      -0.0000   YYYZ       0.0008
      XXZZ     -50.0371   XYZZ      -0.2314   YYZZ     -31.4967
      XZZZ       0.0009   YZZZ       0.0006   ZZZZ     -63.1501
 -----------------------------------------------------------------
Archival summary:
1\1\mm2.localdomain\OPT\MP2\6-311+G**\i1116\xuedong\ThuJun1811:06:542020ThuJun1811:06:542020\0\\#,OPT,MP2,6-311+G**,\\0,1\Si\H,1,1.48044\H,1,1.48044,2,107.592\O,1,1.67087,2,110.307,3,120.366,0\H,4,0.957922,1,118.235,2,-59.3666,0\C,1,1.8592,2,111.119,3,-121.848,0\H,6,1.09309,1,110.749,2,179.813,0\H,6,1.09309,1,110.749,2,-60.0516,0\H,6,1.0944,1,110.724,2,59.8804,0\\HF=-405.247928\MP2=-405.715501\\@

 Total job time:  41.18s(wall), 115.18s(cpu) 
 Thu Jun 18 11:06:54 2020

        *************************************************************
        *                                                           *
        *  Thank you very much for using Q-Chem.  Have a nice day.  *
        *                                                           *
        *************************************************************



Running Job 2 of 2 9.freq.qcinp
qchem 9.freq.qcinp_40619.1 /scratch/xuedong/qchem40619/ 1
/home/qwang/software/qchem5.1/exe/qcprog.exe_s 9.freq.qcinp_40619.1 /scratch/xuedong/qchem40619/
Check license passed

                  Welcome to Q-Chem
     A Quantum Leap Into The Future Of Chemistry


 Q-Chem 5.1, Q-Chem, Inc., Pleasanton, CA (2018)

 Yihan Shao,  Zhengting Gan,  E. Epifanovsky,  A. T. B. Gilbert,  M. Wormit,  
 J. Kussmann,  A. W. Lange,  A. Behn,  Jia Deng,  Xintian Feng,  D. Ghosh,  
 M. Goldey,  P. R. Horn,  L. D. Jacobson,  I. Kaliman,  T. Kus,  A. Landau,  
 Jie Liu,  E. I. Proynov,  R. M. Richard,  R. P. Steele,  E. J. Sundstrom,  
 H. L. Woodcock III,  P. M. Zimmerman,  D. Zuev,  B. Albrecht,  E. Alguire,  
 S. A. Baeppler,  D. Barton,  Z. Benda,  Y. A. Bernard,  E. J. Berquist,  
 K. B. Bravaya,  H. Burton,  D. Casanova,  Chun-Min Chang,  Yunqing Chen,  
 A. Chien,  K. D. Closser,  M. P. Coons,  S. Coriani,  S. Dasgupta,  
 A. L. Dempwolff,  M. Diedenhofen,  Hainam Do,  R. G. Edgar,  Po-Tung Fang,  
 S. Faraji,  S. Fatehi,  Qingguo Feng,  K. D. Fenk,  J. Fosso-Tande,  
 Qinghui Ge,  A. Ghysels,  G. Gidofalvi,  J. Gomes,  J. Gonthier,  A. Gunina,  
 D. Hait,  M. W. D. Hanson-Heine,  P. H. P. Harbach,  A. W. Hauser,  
 J. E. Herr,  E. G. Hohenstein,  Z. C. Holden,  Kerwin Hui,  B. C. Huynh,  
 T.-C. Jagau,  Hyunjun Ji,  B. Kaduk,  K. Khistyaev,  Jaehoon Kim,  
 P. Klunzinger,  K. Koh,  D. Kosenkov,  L. Koulias,  T. Kowalczyk,  
 C. M. Krauter,  A. Kunitsa,  Ka Un Lao,  A. Laurent,  K. V. Lawler,  
 Joonho Lee,  D. Lefrancois,  S. Lehtola,  D. S. Levine,  Yi-Pei Li,  
 You-Sheng Lin,  Fenglai Liu,  E. Livshits,  A. Luenser,  P. Manohar,  
 E. Mansoor,  S. F. Manzer,  Shan-Ping Mao,  Yuezhi Mao,  N. Mardirossian,  
 A. V. Marenich,  T. Markovich,  L. A. Martinez-Martinez,  S. A. Maurer,  
 N. J. Mayhall,  S. C. McKenzie,  J.-M. Mewes,  A. F. Morrison,  
 J. W. Mullinax,  K. Nanda,  T. S. Nguyen-Beck,  R. Olivares-Amaya,  
 J. A. Parkhill,  T. M. Perrine,  F. Plasser,  P. Pokhilko,  S. Prager,  
 A. Prociuk,  E. Ramos,  D. R. Rehn,  F. Rob,  M. Schneider,  N. Sergueev,  
 S. M. Sharada,  S. Sharma,  D. W. Small,  T. Stauch,  T. Stein,  
 Yu-Chuan Su,  A. J. W. Thom,  A. Tkatchenko,  T. Tsuchimochi,  N. M. Tubman,  
 L. Vogt,  M. L. Vidal,  O. Vydrov,  M. A. Watson,  J. Wenzel,  
 M. de Wergifosse,  T. A. Wesolowski,  A. White,  J. Witte,  A. Yamada,  
 Jun Yang,  K. Yao,  S. Yeganeh,  S. R. Yost,  Zhi-Qiang You,  A. Zech,  
 Igor Ying Zhang,  Xing Zhang,  Yan Zhao,  Ying Zhu,  B. R. Brooks,  
 G. K. L. Chan,  C. J. Cramer,  M. S. Gordon,  W. J. Hehre,  A. Klamt,  
 M. W. Schmidt,  C. D. Sherrill,  D. G. Truhlar,  A. Aspuru-Guzik,  R. Baer,  
 A. T. Bell,  N. A. Besley,  Jeng-Da Chai,  R. A. DiStasio Jr.,  A. Dreuw,  
 B. D. Dunietz,  T. R. Furlani,  Chao-Ping Hsu,  Yousung Jung,  Jing Kong,  
 D. S. Lambrecht,  WanZhen Liang,  C. Ochsenfeld,  V. A. Rassolov,  
 L. V. Slipchenko,  J. E. Subotnik,  T. Van Voorhis,  J. M. Herbert,  
 A. I. Krylov,  P. M. W. Gill,  M. Head-Gordon

 Contributors to earlier versions of Q-Chem not listed above: 
 R. D. Adamson,  B. Austin,  J. Baker,  G. J. O. Beran,  K. Brandhorst,  
 S. T. Brown,  E. F. C. Byrd,  A. K. Chakraborty,  C.-L. Cheng,  
 Siu Hung Chien,  D. M. Chipman,  D. L. Crittenden,  H. Dachsel,  
 R. J. Doerksen,  A. D. Dutoi,  L. Fusti-Molnar,  W. A. Goddard III,  
 A. Golubeva-Zadorozhnaya,  S. R. Gwaltney,  G. Hawkins,  A. Heyden,  
 S. Hirata,  G. Kedziora,  F. J. Keil,  C. Kelley,  Jihan Kim,  R. A. King,  
 R. Z. Khaliullin,  P. P. Korambath,  W. Kurlancheek,  A. M. Lee,  M. S. Lee,  
 S. V. Levchenko,  Ching Yeh Lin,  D. Liotard,  R. C. Lochan,  I. Lotan,  
 P. E. Maslen,  N. Nair,  D. P. O'Neill,  D. Neuhauser,  E. Neuscamman,  
 C. M. Oana,  R. Olson,  B. Peters,  R. Peverati,  P. A. Pieniazek,  
 Y. M. Rhee,  J. Ritchie,  M. A. Rohrdanz,  E. Rosta,  N. J. Russ,  
 H. F. Schaefer III,  N. E. Schultz,  N. Shenvi,  A. C. Simmonett,  A. Sodt,  
 D. Stuck,  K. S. Thanthiriwatte,  V. Vanovschi,  Tao Wang,  A. Warshel,  
 C. F. Williams,  Q. Wu,  X. Xu,  W. Zhang

 Please cite Q-Chem as follows:
 Y. Shao et al., Mol. Phys. 113, 184-215 (2015)
 DOI: 10.1080/00268976.2014.952696

 Q-Chem 5.1.0 for Intel X86 EM64T Linux

 Parts of Q-Chem use Armadillo 8.300.2 (Tropical Shenanigans).
 http://arma.sourceforge.net/

 Q-Chem begins on Thu Jun 18 11:06:54 2020  

Host: 
0

     Scratch files written to /scratch/xuedong/qchem40619//
 May118 |scratch|qcdevops|jenkins|workspace|build_RNUM 6581   
Processing $rem in /home/qwang/software/qchem5.1/config/preferences.
 MEM_TOTAL  2000 
The previous job contains 0 fragments, simply inherited here
Core orbitals will be frozen


!!********************************************.
!!******************Warning*******************.
!!Desired Analytical derivatives not available.
!!Finite difference job might take a long time.
!!********************************************.
!!********************************************.


 2-order derivative to be evaluated numerically with 1-order analytical derivatives

Checking the input file for inconsistencies... 	...done.

--------------------------------------------------------------
User input:
--------------------------------------------------------------
$comment
Now calculate the frequency at molecule  the same level of theory
$end

$molecule
read
$end

$rem
JOBTYPE  =  freq
METHOD  =  MP2
BASIS  =  6-311G+(d,p)
SCF_GUESS = read
SCF_MAX_CYCLES  =  200
GEOM_OPT_MAX_CYCLES  =  300
GEOM_OPT_TOL_DISPLACEMENT = 120
GEOM_OPT_TOL_ENERGY = 10
GEOM_OPT_TOL_GRADIENT = 20
$end

--------------------------------------------------------------
 ----------------------------------------------------------------
             Standard Nuclear Orientation (Angstroms)
    I     Atom           X                Y                Z
 ----------------------------------------------------------------
    1      C       1.5129962879    -0.4041411266     0.0000048004
    2      Si     -0.1076717729     0.5069450756    -0.0000011370
    3      H      -0.2330884272     1.3723487253    -1.1945914307
    4      H      -0.2331131365     1.3723421952     1.1945918473
    5      O      -1.3049325260    -0.6585533341    -0.0000117208
    6      H       1.6006537485    -1.0384731740     0.8858877257
    7      H       1.6005912597    -1.0385732458    -0.8858131384
    8      H       2.3521840003     0.2983319182    -0.0000655808
    9      H      -2.2183401435    -0.3699340454     0.0000714589
 ----------------------------------------------------------------
 Molecular Point Group                 C1    NOp =  1
 Largest Abelian Subgroup              C1    NOp =  1
 Nuclear Repulsion Energy =   116.8942480935 hartrees
 There are       17 alpha and       17 beta electrons
 Requested basis set is 6-311+G(d,p)
 There are 49 shells and 110 basis functions

 Total QAlloc Memory Limit   2000 MB
 Mega-Array Size       188 MB
 MEM_STATIC part       192 MB

                       Distance Matrix (Angstroms)
             C (  1)   Si(  2)   H (  3)   H (  4)   O (  5)   H (  6)
   Si(  2)  1.859205
   H (  3)  2.762569  1.480439
   H (  4)  2.762577  1.480439  2.389183
   O (  5)  2.829390  1.670874  2.588520  2.588515
   H (  6)  1.093092  2.468095  3.674652  3.044672  3.061305
   H (  7)  1.093092  2.468087  3.044712  3.674652  3.061230  1.771701
   H (  8)  1.094397  2.468686  3.043688  3.043758  3.780229  1.771090
   H (  9)  3.731493  2.285572  2.898964  2.898885  0.957922  3.976975
             H (  7)   H (  8)
   H (  8)  1.771089
   H (  9)  3.976947  4.619120
 
 A cutoff of  1.0D-11 yielded   1194 shell pairs
 There are      6116 function pairs (      6466 Cartesian)
 
 -------------------------------------------------------
 OpenMP Integral Computing Module                       
 Release: version 1.0, May 2013, Q-Chem Inc. Pittsburgh 
 -------------------------------------------------------
 Integral Job Info:
 Integral job number is                      11
 Integral operator is                         1
 short-range coefficients                     0
 long-range coefficients              100000000
 Omega coefficients                           0
 if combine SR and LR in K                    0
 Integral screening is                        0
 Integral computing path is                   2
 max size of driver memory is            800000
 size of driver memory is                593474
 size of scratch memory is              4204008
 max col of scratch BK array               1296
 max len of scratch array in speh3          155
 max len of scratch index in speh4           18
 max int batch size is                      520
[...]
     8   -6.105109851548883e-04  -1.931067957198427e-03   3.345949647396332e-04
     9   -4.312257739545641e-05  -9.474554367027643e-05   7.165072944524837e-05


     7 Order 1, Length 27
    Atom      X          Y          Z
     1   -4.065709642905695e-02   1.829730304347572e-02   2.949006658276585e-02
     2   -4.642193529347637e-04   1.149494528539692e-02   1.850121398920158e-02
     3    6.286617686810665e-04  -1.390652233709023e-03  -9.585417408416327e-04
     4   -3.880924966946902e-03   2.345735808300754e-03  -2.564294969793266e-04
     5    1.359400481888736e-03  -1.131300621157767e-03  -1.571493198771331e-03
     6   -1.211329643754424e-03  -1.800527099354817e-03  -2.841367591352971e-03
     7    4.161358682756642e-02  -1.292361811930995e-02  -2.025464497315528e-02
     8    2.364658535602265e-03  -1.480779225071458e-02  -2.195961584893671e-02
     9    2.469769777054611e-04  -8.454882796244770e-05  -1.499602376452359e-04

Order 1, Length 27
    Atom      X          Y          Z
     1    1.105893089735878e-02  -1.402737155997142e-01  -1.377030733425360e-01
     2   -1.494869292017450e-03  -7.406284902643057e-03  -1.013437917678916e-02
     3   -4.337783034062720e-04   6.702865243526322e-04   8.211082882006333e-04
     4    2.212434613182161e-03  -6.096353170607682e-04   2.430607325979189e-04
     5   -6.512820594430134e-04   6.903447030716085e-04   6.694756412450490e-04
     6   -1.798835912634553e-03   1.181112848060120e-02   1.688934937869821e-02
     7   -1.292361811930995e-02   1.468409699825919e-01   1.447919908078075e-01
     8    4.128912391125570e-03  -1.168225400427935e-02  -1.574215767042093e-02
     9   -9.739377120827178e-05  -3.987708572577084e-05   1.661538306969921e-04

Order 1, Length 27
    Atom      X          Y          Z
     1    1.805642595535211e-02  -1.315265644671175e-01  -2.277838823224394e-01
     2   -1.657556795705981e-03   1.311353161291164e-03  -7.403221573458033e-04
     3    3.978246710964669e-04  -1.159382917124383e-04   5.920617844133426e-05
     4   -6.169719018972117e-04   1.841554189092868e-05   7.901987604080770e-04
     5    5.801381546773777e-04   3.881907157865122e-04   1.358207681816183e-04
     6    2.840714980163790e-03  -1.689290976048868e-02  -1.926227118962220e-02
     7   -2.025464497315528e-02   1.447919908078075e-01   2.463928239390782e-01
     8    6.098753793046183e-04   1.933096238560181e-03   3.374452432237957e-04
     9    4.481121002706018e-05   9.399447720576570e-05   7.155075488065193e-05


     8 Order 1, Length 27
    Atom      X          Y          Z
     1   -2.123100935751844e-01  -1.473962890036898e-01   1.437902707904738e-05
     2   -1.012060132800860e-02  -1.678004903941990e-02   1.320999277092379e-06
     3    1.333781309786256e-03   1.009545320332834e-03   7.400786427311573e-05
     4    1.334052125522990e-03   1.009686526975635e-03  -7.455942346015076e-05
     5   -5.271230580190816e-03   1.903393693837392e-03   1.288658191748767e-06
     6    2.365712208227542e-03   4.129965482767424e-03  -6.105109851548883e-04
     7    2.364658535602265e-03   4.128912391125570e-03   6.098753793046183e-04
     8    2.208915472429050e-01   1.525254279085125e-01  -1.525621933580582e-05
     9   -5.872427889623765e-04  -5.340127129751469e-04  -7.280282880287886e-07

Order 1, Length 27
    Atom      X          Y          Z
     1   -1.322486853400351e-01  -1.503175087589921e-01   1.048276406852674e-05
     2    7.146636264609029e-03   7.461556673576761e-03  -6.675781844429237e-07
     3   -1.150513249213517e-03  -2.377447023345437e-04  -1.814899023410377e-05
     4   -1.149625613222237e-03  -2.379808993260672e-04   1.781166784640729e-05
     5    3.564817549592655e-03  -1.136211397712903e-03   1.598123076371388e-07
     6   -1.480684227174769e-02  -1.168065550497742e-02  -1.931067957198427e-03
     7   -1.480779225071458e-02  -1.168225400427935e-02   1.933096238560181e-03
     8    1.525254279085125e-01   1.671168000580323e-01  -1.244579659270901e-05
     9    9.252381800635548e-04   7.108726741705273e-04  -5.300970167521545e-08

Order 1, Length 27
    Atom      X          Y          Z
     1    1.280742829909342e-05   1.161547570136596e-05  -4.236620724497193e-02
     2    3.666084928877105e-07  -3.329867317944955e-07  -2.362966105496797e-03
     3    3.589953143086962e-04   2.162311164228887e-04  -1.579768682909131e-04
     4   -3.581924518476310e-04  -2.164242294997392e-04  -1.585039415579866e-04
     5    4.842695978229390e-07   4.256759278586909e-07   2.971921800857313e-04
     6    2.196150928030844e-02   1.574300089697080e-02   3.345949647396332e-04
     7   -2.195961584893671e-02  -1.574215767042093e-02   3.374452432237957e-04
     8   -1.525621933580582e-05  -1.244579659270901e-05   4.351976384867634e-02
     9   -1.400453298656512e-06   8.832396644596649e-08   5.564783730540215e-04


     9 Order 1, Length 27
    Atom      X          Y          Z
     1   -1.351572307204286e-03  -3.294787074023044e-03   7.814407264994795e-07
     2   -1.355726509414628e-02   1.002683283621319e-02   2.756680718764659e-06
     3    1.890821835594671e-03   1.083102804836147e-03  -3.292424798252850e-04
     4    1.891959267600716e-03   1.083281753134891e-03   3.289232228259592e-04
     5   -5.087877402853174e-01   1.359800727519298e-01   4.498925002493415e-05
     6    2.481571342079801e-04  -9.659287419406101e-05  -4.312257739545641e-05
     7    2.469769777054611e-04  -9.739377120827178e-05   4.481121002706018e-05
     8   -5.872427889623765e-04   9.252381800635548e-04  -1.400453298656512e-06
     9    5.200056149055747e-01  -1.456132987521152e-01  -4.626030664545546e-05

Order 1, Length 27
    Atom      X          Y          Z
     1   -9.466646979536635e-04  -1.645654730360269e-03  -1.082586742209484e-07
     2   -2.185195064206354e-02  -2.039254507885942e-03   1.232408448730884e-06
     3    9.078629801468177e-04  -4.938302957716989e-04  -1.707300622100645e-05
     4    9.085096641550624e-04  -4.934076384991601e-04   1.666072193186639e-05
     5    1.673002406942253e-01  -6.025475908866137e-02  -1.530284067141887e-05
     6   -8.510762491392434e-05  -3.987883366982431e-05  -9.474554367027643e-05
     7   -8.454882796244770e-05  -3.987708572577084e-05   9.399447720576570e-05
     8   -5.340127129751469e-04   7.108726741705273e-04   8.832396644596649e-08
     9   -1.456132987521152e-01   6.429760992763939e-02   1.434862452470439e-05

Order 1, Length 27
    Atom      X          Y          Z
     1    2.882687808498084e-07  -8.922509032622449e-07   1.409964034021444e-04
     2   -8.726818579197955e-07  -1.012437500609972e-06   1.420140599900587e-03
     3   -8.699704100557004e-04  -8.082623897745404e-05  -6.287358233211690e-04
     4    8.716981826318347e-04   8.145980475231129e-05  -6.280045808884743e-04
     5    4.649891677267019e-05  -1.352741873249611e-05  -1.953219856761354e-03
     6    1.497555915469701e-04  -1.656490498130986e-04   7.165072944524837e-05
     7   -1.499602376452359e-04   1.661538306969921e-04   7.155075488065193e-05
     8   -7.280282880287886e-07  -5.300970167521545e-08   5.564783730540215e-04
     9   -4.626030664545546e-05   1.434862452470439e-05   9.445123357221265e-04




 # Finishing finite difference calculation for IDERIV #
 ######################################################
 ######################################################
 Requested basis set is 6-311+G(d,p)
 There are 49 shells and 110 basis functions
 **********************************************************************
 **                                                                  **
 **                       VIBRATIONAL ANALYSIS                       **
 **                       --------------------                       **
 **                                                                  **
 **        VIBRATIONAL FREQUENCIES (CM**-1) AND NORMAL MODES         **
 **     FORCE CONSTANTS (mDYN/ANGSTROM) AND REDUCED MASSES (AMU)     **
 **                  INFRARED INTENSITIES (KM/MOL)                   **
 **                                                                  **
 **********************************************************************
 

 Mode:                 1                      2                      3
 Frequency:       111.17                 173.83                 245.41
 Force Cnst:      0.0082                 0.0186                 0.1044
 Red. Mass:       1.1260                 1.0435                 2.9433
 IR Active:          YES                    YES                    YES
 IR Intens:       58.572                 77.410                  4.476
 Raman Active:       YES                    YES                    YES
               X      Y      Z        X      Y      Z        X      Y      Z
 C          0.000  0.000  0.013   -0.000 -0.000  0.022   -0.176 -0.115 -0.000
 Si         0.000 -0.000  0.018   -0.000  0.000 -0.032   -0.020  0.142  0.000
 H          0.071  0.064  0.059    0.051 -0.005 -0.038   -0.101  0.131  0.003
 H         -0.071 -0.064  0.059   -0.051  0.005 -0.038   -0.101  0.131 -0.003
 O         -0.000  0.000 -0.085    0.000 -0.000 -0.014    0.221 -0.105 -0.000
 H          0.221  0.323  0.221   -0.188 -0.241 -0.132   -0.442 -0.166 -0.008
 H         -0.221 -0.323  0.221    0.188  0.241 -0.132   -0.442 -0.166  0.008
 H         -0.000  0.000 -0.460    0.000 -0.000  0.386    0.097 -0.450 -0.000
 H          0.000 -0.000  0.592    0.000 -0.000  0.787    0.135 -0.380 -0.000
 TransDip   0.000 -0.000  0.245    0.000 -0.000  0.282   -0.066  0.013 -0.000

 Mode:                 4                      5                      6
 Frequency:       510.21                 698.16                 727.66
 Force Cnst:      0.1635                 0.4498                 0.5324
 Red. Mass:       1.0661                 1.5664                 1.7067
 IR Active:          YES                    YES                    YES
 IR Intens:       17.507                 58.241                 93.551
 Raman Active:       YES                    YES                    YES
               X      Y      Z        X      Y      Z        X      Y      Z
 C         -0.000 -0.000  0.012    0.187 -0.001 -0.000   -0.147  0.129  0.000
 Si        -0.000  0.000  0.043   -0.032  0.041  0.000    0.073 -0.064 -0.000
 H          0.365 -0.341 -0.248   -0.355 -0.003  0.003   -0.118 -0.089 -0.002
 H         -0.365  0.341 -0.248   -0.355 -0.003 -0.004   -0.118 -0.090  0.002
 O          0.000 -0.000 -0.019   -0.062 -0.054 -0.000    0.024 -0.032  0.000
 H          0.298 -0.224 -0.186   -0.129 -0.106 -0.033   -0.337  0.099 -0.005
 H         -0.298  0.224 -0.186   -0.129 -0.106  0.033   -0.337  0.100  0.005
 H         -0.000  0.000 -0.163    0.544 -0.444 -0.000   -0.027 -0.034 -0.000
 H         -0.000 -0.000 -0.014    0.066  0.384 -0.000    0.262  0.767 -0.000
 TransDip  -0.000  0.000  0.134    0.200  0.140  0.000    0.293  0.101 -0.000

 Mode:                 7                      8                      9
 Frequency:       747.41                 838.07                 852.84
 Force Cnst:      0.3865                 0.6095                 1.7403
 Red. Mass:       1.1743                 1.4728                 4.0611
 IR Active:          YES                    YES                    YES
 IR Intens:       67.106                122.813                 38.547
 Raman Active:       YES                    YES                    YES
               X      Y      Z        X      Y      Z        X      Y      Z
 C          0.000 -0.000  0.017   -0.013 -0.123  0.000    0.033 -0.079 -0.000
 Si        -0.000  0.000 -0.056   -0.020  0.069  0.000   -0.152 -0.112  0.000
 H          0.531  0.410  0.188    0.013  0.132  0.043   -0.507 -0.113  0.023
 H         -0.531 -0.410  0.188    0.013  0.132 -0.043   -0.508 -0.113 -0.023
 O         -0.000 -0.000  0.072    0.004 -0.102 -0.000    0.266  0.252  0.000
 H          0.060 -0.041 -0.023    0.366 -0.016  0.033    0.196 -0.054  0.006
 H         -0.060  0.041 -0.023    0.366 -0.016 -0.033    0.196 -0.054 -0.005
 H          0.000 -0.000 -0.055   -0.336  0.289  0.000   -0.075  0.057  0.000
 H         -0.000 -0.000 -0.071    0.218  0.644  0.000    0.300  0.315 -0.000
 TransDip  -0.000  0.000 -0.262    0.118  0.335  0.000   -0.128 -0.152 -0.000

 Mode:                10                     11                     12
 Frequency:       899.54                 991.60                1039.38
 Force Cnst:      0.6230                 0.7668                 0.6799
 Red. Mass:       1.3069                 1.3236                 1.0683
 IR Active:          YES                    YES                    YES
 IR Intens:       47.459                284.481                159.422
 Raman Active:       YES                    YES                    YES
               X      Y      Z        X      Y      Z        X      Y      Z
 C          0.000  0.000  0.142    0.037  0.045 -0.000    0.009  0.016  0.000
 Si        -0.000 -0.000 -0.054   -0.094 -0.015  0.000   -0.002 -0.046 -0.000
 H         -0.363  0.163  0.113    0.630 -0.004 -0.065    0.006  0.563  0.421
 H          0.363 -0.163  0.113    0.630 -0.004  0.065    0.006  0.563 -0.421
 O          0.000  0.000  0.004    0.046 -0.009 -0.000    0.000  0.002  0.000
 H          0.423 -0.312 -0.141   -0.079 -0.035 -0.037   -0.055 -0.012 -0.013
 H         -0.423  0.312 -0.141   -0.079 -0.035  0.037   -0.055 -0.012  0.013
 H          0.000 -0.000 -0.205    0.215 -0.175  0.000    0.033 -0.022 -0.000
 H          0.000  0.000  0.017    0.127  0.271  0.000   -0.006 -0.018  0.000
 TransDip  -0.000 -0.000 -0.221   -0.540  0.014  0.000   -0.023 -0.404 -0.000

 Mode:                13                     14                     15
 Frequency:      1316.86                1465.03                1473.23
 Force Cnst:      1.2971                 1.3256                 1.3410
 Red. Mass:       1.2696                 1.0482                 1.0487
 IR Active:          YES                    YES                    YES
 IR Intens:       38.136                  4.532                  3.648
 Raman Active:       YES                    YES                    YES
               X      Y      Z        X      Y      Z        X      Y      Z
 C         -0.134  0.073 -0.000   -0.000 -0.000 -0.060   -0.028 -0.054  0.000
 Si         0.013 -0.004 -0.000   -0.000 -0.000 -0.006   -0.003 -0.005  0.000
 H         -0.026  0.005  0.020   -0.005  0.014  0.007    0.016  0.014  0.011
 H         -0.026  0.005 -0.020    0.005 -0.014  0.007    0.016  0.014 -0.011
 O         -0.004  0.000  0.000    0.000  0.000  0.001   -0.001  0.001 -0.000
 H          0.511 -0.139 -0.198    0.436  0.197  0.054    0.095  0.522  0.389
 H          0.511 -0.139  0.198   -0.436 -0.197  0.054    0.095  0.522 -0.390
 H          0.339 -0.469  0.000    0.000 -0.000  0.729    0.197 -0.298 -0.000
 H         -0.010 -0.023 -0.000   -0.000 -0.000  0.006   -0.002 -0.005  0.000
 TransDip   0.179 -0.084 -0.000   -0.000  0.000  0.068    0.036  0.049 -0.000

 Mode:                16                     17                     18
 Frequency:      2281.21                2291.76                3079.99
 Force Cnst:      3.2227                 3.1863                 5.7892
 Red. Mass:       1.0511                 1.0297                 1.0358
 IR Active:          YES                    YES                    YES
 IR Intens:      212.630                136.582                  2.484
 Raman Active:       YES                    YES                    YES
               X      Y      Z        X      Y      Z        X      Y      Z
 C         -0.000  0.000 -0.001   -0.001  0.001  0.000   -0.046  0.020  0.000
 Si        -0.000  0.000 -0.040    0.005 -0.028 -0.000    0.001 -0.001  0.000
 H          0.064 -0.417  0.567   -0.057  0.402 -0.578   -0.001  0.002 -0.000
 H         -0.064  0.417  0.566   -0.057  0.402  0.578   -0.001  0.002  0.000
 O         -0.000  0.000 -0.000   -0.001 -0.001 -0.000   -0.000 -0.000  0.000
 H         -0.004  0.004 -0.004    0.005 -0.002 -0.002    0.031 -0.316  0.451
 H          0.004 -0.004 -0.004    0.005 -0.002  0.002    0.031 -0.316 -0.451
 H          0.000  0.000 -0.002    0.000 -0.007 -0.000    0.471  0.409 -0.000
 H         -0.000 -0.000 -0.004   -0.003 -0.001  0.000   -0.001  0.000 -0.000
 TransDip  -0.000  0.000 -0.467    0.064 -0.369 -0.000   -0.050  0.008  0.000

 Mode:                19                     20                     21
 Frequency:      3173.44                3182.55                3958.23
 Force Cnst:      6.5264                 6.5711                 9.8503
 Red. Mass:       1.0999                 1.1011                 1.0671
 IR Active:          YES                    YES                    YES
 IR Intens:        6.238                  4.677                 89.637
 Raman Active:       YES                    YES                    YES
               X      Y      Z        X      Y      Z        X      Y      Z
 C         -0.042 -0.081 -0.000    0.000  0.000 -0.092   -0.000 -0.000 -0.000
 Si        -0.000 -0.001 -0.000    0.000 -0.000 -0.001    0.000  0.001  0.000
 H         -0.000  0.002 -0.001    0.001 -0.001  0.004    0.002  0.003 -0.001
 H         -0.000  0.002  0.001   -0.001  0.001  0.004    0.002  0.003  0.001
 O          0.000  0.000  0.000    0.000  0.000  0.000   -0.061  0.016  0.000
 H         -0.045  0.244 -0.366    0.058 -0.417  0.564    0.000 -0.000 -0.000
 H         -0.045  0.245  0.366   -0.058  0.417  0.564    0.000 -0.000  0.000
 H          0.600  0.490 -0.000   -0.000 -0.000 -0.018    0.001  0.001 -0.000
 H         -0.001  0.001 -0.000   -0.000 -0.000  0.001    0.957 -0.282 -0.000
 TransDip  -0.038 -0.070 -0.000   -0.000  0.000 -0.069    0.303  0.003 -0.000

 STANDARD THERMODYNAMIC QUANTITIES AT   298.15 K  AND     1.00 ATM

   This Molecule has  0 Imaginary Frequencies
   Zero point vibrational energy:       42.969 kcal/mol

   Atom    1 Element C  Has Mass   12.00000
   Atom    2 Element Si Has Mass   27.97693
   Atom    3 Element H  Has Mass    1.00783
   Atom    4 Element H  Has Mass    1.00783
   Atom    5 Element O  Has Mass   15.99491
   Atom    6 Element H  Has Mass    1.00783
   Atom    7 Element H  Has Mass    1.00783
   Atom    8 Element H  Has Mass    1.00783
   Atom    9 Element H  Has Mass    1.00783
   Molecular Mass:    62.018820 amu
   Principal axes and moments of inertia in amu*Bohr^2:
                             1           2           3
    Eigenvalues --       95.05804   268.85372   332.07074
          X               0.99879    -0.04922    -0.00000
          Y               0.04922     0.99879    -0.00000
          Z               0.00000     0.00000     1.00000
   Rotational Symmetry Number is   1
   The Molecule is an Asymmetric Top
   Translational Enthalpy:        0.889 kcal/mol
   Rotational Enthalpy:           0.889 kcal/mol
   Vibrational Enthalpy:         44.610 kcal/mol
   gas constant (RT):             0.592 kcal/mol
   Translational Entropy:        38.294  cal/mol.K
   Rotational Entropy:           23.655  cal/mol.K
   Vibrational Entropy:           9.592  cal/mol.K

   Total Enthalpy:               46.980 kcal/mol
   Total Entropy:                71.541  cal/mol.K
Archival summary:
1\1\mm2.localdomain\FREQ\MP2\6-311+G**\i1116\xuedong\ThuJun1811:12:292020ThuJun1811:12:292020\0\\#,FREQ,MP2,6-311+G**,\\0,1\Si\H,1,1.48044\H,1,1.48044,2,107.592\O,1,1.67087,2,110.307,3,120.366,0\H,4,0.957922,1,118.235,2,-59.3666,0\C,1,1.8592,2,111.119,3,-121.848,0\H,6,1.09309,1,110.749,2,179.813,0\H,6,1.09309,1,110.749,2,-60.0516,0\H,6,1.0944,1,110.724,2,59.8804,0\\HF=-405.247928\MP2=-405.715501\\@

 Total job time:  335.51s(wall), 927.74s(cpu) 
 Thu Jun 18 11:12:29 2020

        *************************************************************
        *                                                           *
        *  Thank you very much for using Q-Chem.  Have a nice day.  *
        *                                                           *
        *************************************************************


